Compiler and run-time data
===========================================================================
RASPA 2.0.47
Compiled as a 64-bits application
Compiler: gcc 4.8.5 20150623 (Red Hat 4.8.5-44)
Compile Date = Mar 22 2022, Compile Time = 16:04:55

Mon Mar 24 00:53:33 2025
Simulation started on Monday, March 24.
The start time was 12:53 AM.

Hostname:    psid02
OS type:     Linux on x86_64
OS release:  3.10.0-1062.el7.x86_64
OS version:  #1 SMP Wed Aug 7 18:08:02 UTC 2019

Simulation
===========================================================================
Dimensions: 3
Random number seed: 1742745213
RASPA directory set to: /home/ys/Research/simulations
String appended to output-files: 
Number of cycles: 20000
Number of initializing cycles: 10000
Number of equilibration cycles: 0
Print every: 1000
Triclinic boundary condition applied
Timestep: 0.000500
	Degrees of freedom:                        0
	Translational Degrees of freedom:          0
	Rotational Degrees of freedom:             0
	Degrees of freedom Framework:              0


Mutual consistent basic set of units:
======================================
Unit of temperature: Kelvin
Unit of length:      1e-10 [m]
Unit of time:        1e-12 [s]
Unit of mass:        1.66054e-27 [kg]
Unit of charge:      1.60218e-19 [C/particle]

Derived units and their conversion factors:
===========================================
Unit of energy:              1.66054e-23 [J]
Unit of force:               1.66054e-13 [N]
Unit of pressure:            1.66054e+07 [Pa]
Unit of velocity:            100 [m/s]
Unit of acceleration:        1e-08 [m^2/s]
Unit of diffusion:           1e-08 [m^2/s]
Unit of dipole moment:       1.60218e-29 [C.m]
Unit of electric potential:  0.000103643 [V]
Unit of electric field:      1.03643e+06 [V]
Unit of polarizability:      1.54587e-35 [-]
Unit of Coulomb potential:   167101.0800066561  [K]
Unit of dielectric constant: 0.0000154587       [s^2 C^2/(kg m^3)]
Unit of wave vectors:        5.3088374589       [cm^1]
Boltzmann constant:          0.8314464919       [-]

Internal conversion factors:
===========================================
Energy to Kelvin:                                    1.2027242847
FH correction factor                                 2.0211930949
Heat capacity conversion factor:                    10.0000088723
From Debye to internal units:                        4.8032067991
Isothermal compressibility conversion factor:        0.0000000602

Energy conversion factors:
===========================================
From mdyne/A to kcal/mol/A^2:           143.933
From mdyne/A to kj/mol/A^2:             602.214
From mdyne/A to K/A^2:                  72429.7
From mdyne A/rad^2 to kcal/mol/deg^2:   0.0438444


Properties computed
===========================================================================
Movies: no
Radial Distribution Function: no
Number of molecules GCMC histogram: no
Histogram of the molecule positions: no
Free energy profiles: no
Pore Size Distribution Function: no
End-to-end distance: no
Histogram of the energy of the system: no
Compute thermodynamic factors: no
Framework spacing histograms: no
Residence times histograms: no
Distance histograms: no
Bend Angle histograms: no
Dihedral angle histograms: no
Angle between planes histograms: no
Molecule properties: no
Infra-red spectra: no
Mean-squared displacement using modified order-N algorithm: no
Velocity-autocorrelation function modified order-N algorithm: no
Rotational velocity-autocorrelation function modified order-N algorithm: no
Molecular orientation-autocorrelation function modified order-N algorithm: no
Bond orientation-autocorrelation function modified order-N algorithm: no
Mean-squared displacement (conventional algorithm): no
Velocity-autocorrelation function (conventional algorithm): no
3D density grid for adsorbates: no
Compute cation an/or adsorption sites: no
dcTST snapshots: no
Compute pressure and stress: no


VTK
===========================================================================
VTK fractional-range position framework atoms: [-0.001000,1.001000] [-0.001000,1.001000] [-0.001000,1.001000]
VTK fractional-range position framework bonds: [-0.151000,1.151000] [-0.151000,1.151000] [-0.151000,1.151000]
VTK fractional-range com-position adsorbate molecules: [-0.101000,1.101000] [-0.101000,1.101000] [-0.101000,1.101000]
VTK fractional-range com-position cation molecules: [-0.101000,1.101000] [-0.101000,1.101000] [-0.101000,1.101000]
	3D free energy grid made for the full simulation-cell


Thermo/Baro-stat NHC parameters
===========================================================================
External temperature: 298 [K]
Beta: 0.00403598 [energy unit]
External Pressure: 500000 [Pa]


Thermostat chain-length: 3
Timescale parameter for thermostat: 0.150000 [ps]
Barostat chain-length:   3
Timescale parameter for barostat:   0.150000 [ps]

Number of Yoshida-Suzuki decomposition steps: 5
Number of respa steps: 5


Method and settings for electrostatics
===============================================================================
Dielectric constant of the medium : 1.000000
Charge from charge-equilibration: no
Ewald summation is used (exact solution of a periodic system)
Relative precision                : 1e-06
Alpha convergence parameter       : 0.265058
kvec (x,y,z)                      : 10 10 10


CFC-RXMC parameters
===========================================================================
Number of reactions: 0


Rattle parameters
===========================================================================
Distance constraint type: r^2-r^2_0
Bend angle constraint type: theta-theta_0
Dihedral angle constraint type: phi-phi_0
Inversion-bend angle constraint type: chi-chi_0
Out-of-plane distance constraint type: r-r_0


Spectra parameters
===========================================================================
Compute normal modes: no


Minimization parameters
===========================================================================
Generalized coordinates are: Cartesian center-of-mass, elements of the orientational matrix p1,p2,p3 and strain
Potential derivatives are evaluated: analytically
Translation of the system is removed from the generalized Hessian: no
Rotation of the system is removed from the generalized Hessian: no
Maximum step-length: 0.3
Convergence factor: 1
Maximum number of minimization steps: 10000
Use gradients in the line-minimizations: yes
RMS gradient tolerance: 1e-06
Maximum gradient tolerance: 1e-06

Distance constraints: 0
Angle constraints: 0
Dihedral constraints: 0

Improper dihedral constraints: 0

Inversion-bend constraints: 0

Out-of-plane constraints: 0

Harmonic distance constraints: 0
Harmonic angle constraints: 0
Harmonic dihedral constraints: 0

Dihedral mid-point measurements: 0

All framework atoms are fixed

Fixed adsorbate atoms:  
Fixed adsorbate groups (center-of-mass):  
Fixed adsorbate groups (orientation):  

Fixed cation atoms:  
Fixed cation groups (center-of-mass):  
Fixed cation groups (orientation):  


dcTST parameters
===========================================================================
Free energy profiles computed: no
Free energy profiles written every 5000 cycles
Free energy mapping: mapped to a,b,c-coordinates
BarrierPosition:       0.0000000000       0.0000000000       0.0000000000
BarrierNormal:         0.0000000000       0.0000000000       0.0000000000
Start with a molecule on top of the barrier: no
Maximum distance to barrier (e.g. distance to minumum free energy):       0.0000000000 [A]
Maximum trajectory time:      10.0000000000 [ps]
Each configuration is used with 5 different initial velocities


Cbmc parameters
===========================================================================
Biasing method: using only the VDW part
Number of trial positions:                                       10
Number of trial positions (reinsertion):                         10
Number of trial positions (partial reinsertion):                 10
Number of trial positions (identity-change):                     10
Number of trial positions (Gibbs particle transfer):             10
Number of trial positions (insertion/deletion):                  10
Number of trial positions (Widom insertion):                     10
Number of trial positions coupled Torsion-selection:             100
Number of trial positions first bead:                            10
Number of trial positions first bead (reinsertion):              10
Number of trial positions first bead (partial reinsertion):      10
Number of trial positions first bead (identity-change):          10
Number of trial positions first bead (Gibbs particle transfer):  10
Number of trial positions first bead (insertion/deletion):       10
Number of trial positions first bead (Widom insertion):          10
Number of trial moves per open bead:                             150
Target acceptance ratio small-mc scheme:                         0.400000
Energy overlap criteria:                                         1e+07
Minimal Rosenbluth factor:                                       1e-150


Pseudo atoms: 43
===========================================================================
Pseudo Atom[   0] Name UNIT     Oxidation:          Element: H    pdb-name: H    Scat. Types:   1   1 Mass=1.000000000  B-factor:0.000   
                 Charge=1.000000000          Polarization=0.000000000  [A^3] (considered a charged atom and no polarization)  Interactions: yes
                 Anisotropic factor:    0.000 [-] (Absolute), Radius:    1.000 [A], Framework-atom:  no
Pseudo Atom[   1] Name DUMMY    Oxidation: +0       Element: H    pdb-name: H    Scat. Types:   1   1 Mass=1.000000000  B-factor:1.000   
                 Charge=0.000000000          Polarization=0.000000000  [A^3] (considered a chargeless atom and no polarization)  Interactions: yes
                 Anisotropic factor:    0.000 [-] (Absolute), Radius:    1.000 [A], Framework-atom:  no
Pseudo Atom[   2] Name He       Oxidation: +0       Element: He   pdb-name: He   Scat. Types:   3   2 Mass=4.002602000  B-factor:1.000   
                 Charge=0.000000000          Polarization=0.000000000  [A^3] (considered a chargeless atom and no polarization)  Interactions: yes
                 Anisotropic factor:    0.000 [-] (Absolute), Radius:    1.000 [A], Framework-atom:  no
Pseudo Atom[   3] Name Ar       Oxidation: +0       Element: Ar   pdb-name: Ar   Scat. Types:  19  18 Mass=39.948000000 B-factor:1.000   
                 Charge=0.000000000          Polarization=0.000000000  [A^3] (considered a chargeless atom and no polarization)  Interactions: yes
                 Anisotropic factor:    0.000 [-] (Absolute), Radius:    1.000 [A], Framework-atom:  no
Pseudo Atom[   4] Name O        Oxidation: +0       Element: O    pdb-name: O    Scat. Types:   9   8 Mass=15.999400000 B-factor:1.000   
                 Charge=-0.490750000   (av)  Polarization=0.000000000  [A^3] (considered a charged atom and no polarization)  Interactions: yes
                 Anisotropic factor:    0.000 [-] (Absolute), Radius:    0.500 [A], Framework-atom: yes (charge from structure file)
Pseudo Atom[   5] Name Oa       Oxidation: +0       Element: O    pdb-name: Oa   Scat. Types:   9  -1 Mass=15.999400000 B-factor:1.000   
                 Charge=-1.200000000         Polarization=0.000000000  [A^3] (considered a charged atom and no polarization)  Interactions: yes
                 Anisotropic factor:    0.000 [-] (Absolute), Radius:    0.500 [A], Framework-atom:  no
Pseudo Atom[   6] Name Op       Oxidation: +0       Element: O    pdb-name: O    Scat. Types:   9   8 Mass=15.999400000 B-factor:1.000   
                 Charge=-0.823000000         Polarization=1.110000000  [A^3] (considered a charged atom and polarizable)  Interactions: yes
                 Anisotropic factor:    0.000 [-] (Absolute), Radius:    0.680 [A], Framework-atom:  no
Pseudo Atom[   7] Name Si       Oxidation: +0       Element: Si   pdb-name: Si   Scat. Types:  15  14 Mass=28.085500000 B-factor:1.000   
                 Charge=2.050000000          Polarization=0.000000000  [A^3] (considered a charged atom and no polarization)  Interactions: yes
                 Anisotropic factor:    0.000 [-] (Absolute), Radius:    1.180 [A], Framework-atom:  no
Pseudo Atom[   8] Name Al       Oxidation: +0       Element: Al   pdb-name: Al   Scat. Types:  14  13 Mass=26.981539000 B-factor:1.000   
                 Charge=1.750000000          Polarization=0.000000000  [A^3] (considered a charged atom and no polarization)  Interactions: yes
                 Anisotropic factor:    0.000 [-] (Absolute), Radius:    1.180 [A], Framework-atom:  no
Pseudo Atom[   9] Name P        Oxidation: +0       Element: P    pdb-name: P    Scat. Types:  16  15 Mass=30.973760000 B-factor:1.000   
                 Charge=0.619500000    (av)  Polarization=0.000000000  [A^3] (considered a charged atom and no polarization)  Interactions: yes
                 Anisotropic factor:    0.000 [-] (Absolute), Radius:    1.000 [A], Framework-atom: yes (charge from structure file)
Pseudo Atom[  10] Name Co       Oxidation: +0       Element: Co   pdb-name: Co   Scat. Types:  28  27 Mass=58.933195000 B-factor:1.000   
                 Charge=0.000000000          Polarization=0.000000000  [A^3] (considered a chargeless atom and no polarization)  Interactions: yes
                 Anisotropic factor:    0.000 [-] (Absolute), Radius:    1.350 [A], Framework-atom:  no
Pseudo Atom[  11] Name Be       Oxidation: +0       Element: Be   pdb-name: Be   Scat. Types:   5   4 Mass=9.012182000  B-factor:1.000   
                 Charge=0.000000000          Polarization=0.000000000  [A^3] (considered a chargeless atom and no polarization)  Interactions: yes
                 Anisotropic factor:    0.000 [-] (Absolute), Radius:    0.900 [A], Framework-atom:  no
Pseudo Atom[  12] Name Ga       Oxidation: +0       Element: Ga   pdb-name: Ga   Scat. Types:  32  31 Mass=69.723000000 B-factor:1.000   
                 Charge=0.000000000          Polarization=0.000000000  [A^3] (considered a chargeless atom and no polarization)  Interactions: yes
                 Anisotropic factor:    0.000 [-] (Absolute), Radius:    1.260 [A], Framework-atom:  no
Pseudo Atom[  13] Name H        Oxidation: +0       Element: H    pdb-name: H    Scat. Types:   1   1 Mass=1.007940000  B-factor:1.000   
                 Charge=0.242500000    (av)  Polarization=1.000000000  [A^3] (considered a charged atom and polarizable)  Interactions: yes
                 Anisotropic factor:    0.000 [-] (Absolute), Radius:    0.320 [A], Framework-atom: yes (charge from structure file)
Pseudo Atom[  14] Name V        Oxidation: +0       Element: V    pdb-name: V    Scat. Types:  24  23 Mass=50.941500000 B-factor:1.000   
                 Charge=1.795166667    (av)  Polarization=1.000000000  [A^3] (considered a charged atom and polarizable)  Interactions: yes
                 Anisotropic factor:    0.000 [-] (Absolute), Radius:    0.320 [A], Framework-atom: yes (charge from structure file)
Pseudo Atom[  15] Name Mg       Oxidation: +0       Element: Mg   pdb-name: Mg   Scat. Types:  13  12 Mass=24.305000000 B-factor:1.000   
                 Charge=0.000000000          Polarization=1.000000000  [A^3] (considered a charged atom and polarizable)  Interactions: yes
                 Anisotropic factor:    0.000 [-] (Absolute), Radius:    0.320 [A], Framework-atom:  no
Pseudo Atom[  16] Name CH5_sp3  Oxidation: +0       Element: C    pdb-name: C    Scat. Types:   7   6 Mass=16.042460000 B-factor:1.000   
                 Charge=0.000000000          Polarization=0.000000000  [A^3] (considered a chargeless atom and no polarization)  Interactions: yes
                 Anisotropic factor:    0.000 [-] (Absolute), Radius:    1.000 [A], Framework-atom:  no
Pseudo Atom[  17] Name CH4_sp3  Oxidation: +0       Element: C    pdb-name: C    Scat. Types:   7   6 Mass=16.042460000 B-factor:1.000   
                 Charge=0.000000000          Polarization=0.000000000  [A^3] (considered a chargeless atom and no polarization)  Interactions: yes
                 Anisotropic factor:    0.000 [-] (Absolute), Radius:    1.000 [A], Framework-atom:  no
Pseudo Atom[  18] Name CH3_sp3  Oxidation: +0       Element: C    pdb-name: C    Scat. Types:   7   6 Mass=15.034520000 B-factor:1.000   
                 Charge=0.000000000          Polarization=0.000000000  [A^3] (considered a chargeless atom and no polarization)  Interactions: yes
                 Anisotropic factor:    0.000 [-] (Absolute), Radius:    1.000 [A], Framework-atom:  no
Pseudo Atom[  19] Name CH2_sp3  Oxidation: +0       Element: C    pdb-name: C    Scat. Types:   7   6 Mass=14.026580000 B-factor:1.000   
                 Charge=0.000000000          Polarization=0.000000000  [A^3] (considered a chargeless atom and no polarization)  Interactions: yes
                 Anisotropic factor:    0.000 [-] (Absolute), Radius:    1.000 [A], Framework-atom:  no
Pseudo Atom[  20] Name CH_sp3   Oxidation: +0       Element: C    pdb-name: C    Scat. Types:   7   6 Mass=13.018640000 B-factor:1.000   
                 Charge=0.000000000          Polarization=0.000000000  [A^3] (considered a chargeless atom and no polarization)  Interactions: yes
                 Anisotropic factor:    0.000 [-] (Absolute), Radius:    1.000 [A], Framework-atom:  no
Pseudo Atom[  21] Name C_sp3    Oxidation: +0       Element: C    pdb-name: C    Scat. Types:   7   6 Mass=12.000000000 B-factor:1.000   
                 Charge=0.000000000          Polarization=0.000000000  [A^3] (considered a chargeless atom and no polarization)  Interactions: yes
                 Anisotropic factor:    0.000 [-] (Absolute), Radius:    1.000 [A], Framework-atom:  no
Pseudo Atom[  22] Name CH2_sp2  Oxidation: +0       Element: C    pdb-name: C    Scat. Types:   7   6 Mass=14.026580000 B-factor:1.000   
                 Charge=0.000000000          Polarization=0.000000000  [A^3] (considered a chargeless atom and no polarization)  Interactions: yes
                 Anisotropic factor:    0.000 [-] (Absolute), Radius:    1.000 [A], Framework-atom:  no
Pseudo Atom[  23] Name CH_sp2   Oxidation: +0       Element: C    pdb-name: C    Scat. Types:   7   6 Mass=13.018640000 B-factor:1.000   
                 Charge=0.000000000          Polarization=0.000000000  [A^3] (considered a chargeless atom and no polarization)  Interactions: yes
                 Anisotropic factor:    0.000 [-] (Absolute), Radius:    1.000 [A], Framework-atom:  no
Pseudo Atom[  24] Name C_benz   Oxidation: +0       Element: C    pdb-name: C    Scat. Types:   7   6 Mass=12.000000000 B-factor:1.000   
                 Charge=-0.095000000         Polarization=1.000000000  [A^3] (considered a charged atom and polarizable)  Interactions: yes
                 Anisotropic factor:    0.000 [-] (Absolute), Radius:    0.700 [A], Framework-atom:  no
Pseudo Atom[  25] Name H_benz   Oxidation: +0       Element: H    pdb-name: H    Scat. Types:   1   1 Mass=1.007940000  B-factor:1.000   
                 Charge=0.095000000          Polarization=1.000000000  [A^3] (considered a charged atom and polarizable)  Interactions: yes
                 Anisotropic factor:    0.000 [-] (Absolute), Radius:    0.320 [A], Framework-atom:  no
Pseudo Atom[  26] Name Na       Oxidation: +0       Element: Na   pdb-name: Na   Scat. Types:  12  11 Mass=22.989770000 B-factor:1.000   
                 Charge=1.000000000          Polarization=0.000000000  [A^3] (considered a charged atom and no polarization)  Interactions: yes
                 Anisotropic factor:    0.000 [-] (Absolute), Radius:    1.000 [A], Framework-atom:  no
Pseudo Atom[  27] Name Cl       Oxidation: +0       Element: Cl   pdb-name: Cl   Scat. Types:  18  17 Mass=35.452700000 B-factor:1.000   
                 Charge=-1.000000000         Polarization=0.000000000  [A^3] (considered a charged atom and no polarization)  Interactions: yes
                 Anisotropic factor:    0.000 [-] (Absolute), Radius:    1.000 [A], Framework-atom:  no
Pseudo Atom[  28] Name Ca       Oxidation: +0       Element: Ca   pdb-name: Ca   Scat. Types:  21  20 Mass=40.078000000 B-factor:1.000   
                 Charge=2.000000000          Polarization=0.000000000  [A^3] (considered a charged atom and no polarization)  Interactions: yes
                 Anisotropic factor:    0.000 [-] (Absolute), Radius:    1.000 [A], Framework-atom:  no
Pseudo Atom[  29] Name C_co2    Oxidation: +0       Element: C    pdb-name: C    Scat. Types:   7   6 Mass=12.000000000 B-factor:1.000   
                 Charge=0.651200000          Polarization=0.000000000  [A^3] (considered a charged atom and no polarization)  Interactions: yes
                 Anisotropic factor:    0.000 [-] (Absolute), Radius:    0.720 [A], Framework-atom:  no
Pseudo Atom[  30] Name O_co2    Oxidation: +0       Element: O    pdb-name: O    Scat. Types:   9   8 Mass=15.999400000 B-factor:1.000   
                 Charge=-0.325600000         Polarization=0.000000000  [A^3] (considered a charged atom and no polarization)  Interactions: yes
                 Anisotropic factor:    0.000 [-] (Absolute), Radius:    0.680 [A], Framework-atom:  no
Pseudo Atom[  31] Name O_o2     Oxidation: +0       Element: O    pdb-name: O    Scat. Types:   9   8 Mass=15.999400000 B-factor:1.000   
                 Charge=-0.112000000         Polarization=0.000000000  [A^3] (considered a charged atom and no polarization)  Interactions: yes
                 Anisotropic factor:    0.000 [-] (Absolute), Radius:    0.700 [A], Framework-atom:  no
Pseudo Atom[  32] Name O_com    Oxidation: +0       Element: -    pdb-name: O    Scat. Types:   0   8 Mass=0.000000000  B-factor:1.000   
                 Charge=0.224000000          Polarization=0.000000000  [A^3] (considered a charged atom and no polarization)  Interactions: yes
                 Anisotropic factor:    0.000 [-] (Absolute), Radius:    0.700 [A], Framework-atom:  no
Pseudo Atom[  33] Name N_n2     Oxidation: +0       Element: N    pdb-name: N    Scat. Types:   8   7 Mass=14.006740000 B-factor:1.000   
                 Charge=-0.404800000         Polarization=0.000000000  [A^3] (considered a charged atom and no polarization)  Interactions: yes
                 Anisotropic factor:    0.000 [-] (Absolute), Radius:    0.700 [A], Framework-atom:  no
Pseudo Atom[  34] Name N_com    Oxidation: +0       Element: -    pdb-name: N    Scat. Types:   0   7 Mass=0.000000000  B-factor:1.000   
                 Charge=0.809600000          Polarization=0.000000000  [A^3] (considered a charged atom and no polarization)  Interactions: yes
                 Anisotropic factor:    0.000 [-] (Absolute), Radius:    0.700 [A], Framework-atom:  no
Pseudo Atom[  35] Name Ow       Oxidation: +0       Element: O    pdb-name: O    Scat. Types:   9   8 Mass=15.999400000 B-factor:1.000   
                 Charge=0.000000000          Polarization=0.000000000  [A^3] (considered a chargeless atom and no polarization)  Interactions: yes
                 Anisotropic factor:    0.000 [-] (Absolute), Radius:    0.500 [A], Framework-atom:  no
Pseudo Atom[  36] Name Hw       Oxidation: +0       Element: H    pdb-name: H    Scat. Types:   1   1 Mass=1.008000000  B-factor:1.000   
                 Charge=0.241000000          Polarization=0.000000000  [A^3] (considered a charged atom and no polarization)  Interactions: yes
                 Anisotropic factor:    0.000 [-] (Absolute), Radius:    1.000 [A], Framework-atom:  no
Pseudo Atom[  37] Name Lw       Oxidation: +0       Element: -    pdb-name: L    Scat. Types:   0   3 Mass=0.000000000  B-factor:1.000   
                 Charge=-0.241000000         Polarization=0.000000000  [A^3] (considered a charged atom and no polarization)  Interactions: yes
                 Anisotropic factor:    0.000 [-] (Absolute), Radius:    1.000 [A], Framework-atom:  no
Pseudo Atom[  38] Name H_h2     Oxidation: +0       Element: H    pdb-name: H    Scat. Types:   1   1 Mass=1.007940000  B-factor:1.000   
                 Charge=0.468000000          Polarization=0.000000000  [A^3] (considered a charged atom and no polarization)  Interactions: yes
                 Anisotropic factor:    0.000 [-] (Absolute), Radius:    0.700 [A], Framework-atom:  no
Pseudo Atom[  39] Name H_com    Oxidation: +0       Element: -    pdb-name: H    Scat. Types:   0   1 Mass=0.000000000  B-factor:1.000   
                 Charge=-0.936000000         Polarization=0.000000000  [A^3] (considered a charged atom and no polarization)  Interactions: yes
                 Anisotropic factor:    0.000 [-] (Absolute), Radius:    0.700 [A], Framework-atom:  no
Pseudo Atom[  40] Name N_nh3    Oxidation: +0       Element: N    pdb-name: N    Scat. Types:   8   7 Mass=14.006700000 B-factor:1.000   
                 Charge=0.000000000          Polarization=0.000000000  [A^3] (considered a chargeless atom and no polarization)  Interactions: yes
                 Anisotropic factor:    0.000 [-] (Relative), Radius:    0.700 [A], Framework-atom:  no
Pseudo Atom[  41] Name H_nh3    Oxidation: +0       Element: H    pdb-name: H    Scat. Types:   1   1 Mass=1.007900000  B-factor:1.000   
                 Charge=0.410000000          Polarization=0.000000000  [A^3] (considered a charged atom and no polarization)  Interactions: yes
                 Anisotropic factor:    0.000 [-] (Relative), Radius:    0.700 [A], Framework-atom:  no
Pseudo Atom[  42] Name M_nh3    Oxidation: +0       Element: H    pdb-name: H    Scat. Types:   1   1 Mass=0.000000000  B-factor:1.000   
                 Charge=-1.230000000         Polarization=0.000000000  [A^3] (considered a charged atom and no polarization)  Interactions: yes
                 Anisotropic factor:    0.000 [-] (Relative), Radius:    0.700 [A], Framework-atom:  no


Forcefield: GarciaPerez2006ForceField
===========================================================================
Minimal distance: 1
CutOff VDW : 12.000000 (144.000000)
CutOff VDW switching on: 10.800000 (116.640000)
CutOff charge-charge : 12.000000 (144.000000)
CutOff charge-charge switching on: 7.800000 (60.840000)
CutOff charge-bonddipole : 12.000000 (144.000000)
CutOff charge-bondipole switching on: 8.400000 (70.560000)
CutOff bonddipole-bonddipole : 12.000000 (144.000000)
CutOff bonddipole-bondipole switching on: 9.000000 (81.000000)
Polarization is neglected
All potentials are shifted to zero at the Cutoff

General mixing rule: Lorentz-Berthelot mixing rules are used FIRST for cross terms
0 cross terms are overwritten using the individual mixing rules from the file 'force_field_mixing_rules.def'
and then 0 terms are overwritten using the specific interactions from the file 'force_field.def'

The force field and all the interactions:
  DUMMY -      Si [HARD_SPHERE] radius:   1.00000
  DUMMY -      Al [HARD_SPHERE] radius:   1.00000
  DUMMY -   O_com [ZERO_POTENTIAL]
  DUMMY -   N_com [ZERO_POTENTIAL]
  DUMMY -   H_com [ZERO_POTENTIAL]
     He -      He [LENNARD_JONES] p_0/k_B:  10.90000 [K], p_1: 2.64000 [A], shift/k_B:  -0.00494280 [K], tailcorrection: no
     He -      Ar [LENNARD_JONES] p_0/k_B:  36.77449 [K], p_1: 3.01000 [A], shift/k_B:  -0.03662773 [K], tailcorrection: no
     He -       O [LENNARD_JONES] p_0/k_B:  22.91120 [K], p_1: 2.83657 [A], shift/k_B:  -0.01598491 [K], tailcorrection: no
     He -      Oa [LENNARD_JONES] p_0/k_B:  22.91120 [K], p_1: 2.83657 [A], shift/k_B:  -0.01598491 [K], tailcorrection: no
     He -      Op [LENNARD_JONES] p_0/k_B:  22.91120 [K], p_1: 2.83657 [A], shift/k_B:  -0.01598491 [K], tailcorrection: no
     He -      Si [HARD_SPHERE] radius:   1.00000
     He -      Al [HARD_SPHERE] radius:   1.00000
     He -       P [LENNARD_JONES] p_0/k_B:  41.89543 [K], p_1: 3.16861 [A], shift/k_B:  -0.05678175 [K], tailcorrection: no
     He -      Co [LENNARD_JONES] p_0/k_B:   8.76306 [K], p_1: 2.59933 [A], shift/k_B:  -0.00362036 [K], tailcorrection: no
     He -      Be [LENNARD_JONES] p_0/k_B:  21.59150 [K], p_1: 2.54500 [A], shift/k_B:  -0.00785855 [K], tailcorrection: no
     He -      Ga [LENNARD_JONES] p_0/k_B:  47.71072 [K], p_1: 3.27241 [A], shift/k_B:  -0.07845346 [K], tailcorrection: no
     He -       H [LENNARD_JONES] p_0/k_B:   9.13090 [K], p_1: 2.74321 [A], shift/k_B:  -0.00521169 [K], tailcorrection: no
     He -       V [LENNARD_JONES] p_0/k_B:   9.36811 [K], p_1: 2.72050 [A], shift/k_B:  -0.00508690 [K], tailcorrection: no
     He -      Mg [LENNARD_JONES] p_0/k_B:  24.67480 [K], p_1: 2.66570 [A], shift/k_B:  -0.01185896 [K], tailcorrection: no
     He - CH5_sp3 [LENNARD_JONES] p_0/k_B:  22.83928 [K], p_1: 3.05649 [A], shift/k_B:  -0.02493896 [K], tailcorrection: no
     He - CH4_sp3 [LENNARD_JONES] p_0/k_B:  41.56501 [K], p_1: 3.18000 [A], shift/k_B:  -0.05755893 [K], tailcorrection: no
     He - CH3_sp3 [LENNARD_JONES] p_0/k_B:  32.68333 [K], p_1: 3.19500 [A], shift/k_B:  -0.04655531 [K], tailcorrection: no
     He - CH2_sp3 [LENNARD_JONES] p_0/k_B:  22.39196 [K], p_1: 3.29500 [A], shift/k_B:  -0.03837170 [K], tailcorrection: no
     He -  CH_sp3 [LENNARD_JONES] p_0/k_B:  13.61249 [K], p_1: 3.65500 [A], shift/k_B:  -0.04343978 [K], tailcorrection: no
     He -   C_sp3 [LENNARD_JONES] p_0/k_B:   2.95296 [K], p_1: 4.51000 [A], shift/k_B:  -0.03319436 [K], tailcorrection: no
     He - CH2_sp2 [LENNARD_JONES] p_0/k_B:  31.83866 [K], p_1: 3.16250 [A], shift/k_B:  -0.04265451 [K], tailcorrection: no
     He -  CH_sp2 [LENNARD_JONES] p_0/k_B:  24.03539 [K], p_1: 3.19000 [A], shift/k_B:  -0.03391677 [K], tailcorrection: no
     He -  C_benz [LENNARD_JONES] p_0/k_B:  18.29289 [K], p_1: 3.12000 [A], shift/k_B:  -0.02259687 [K], tailcorrection: no
     He -  H_benz [LENNARD_JONES] p_0/k_B:  16.65548 [K], p_1: 2.50000 [A], shift/k_B:  -0.00544671 [K], tailcorrection: no
     He -      Na [LENNARD_JONES] p_0/k_B:  12.78671 [K], p_1: 2.65000 [A], shift/k_B:  -0.00593139 [K], tailcorrection: no
     He -      Cl [LENNARD_JONES] p_0/k_B:  39.41987 [K], p_1: 3.07966 [A], shift/k_B:  -0.04503811 [K], tailcorrection: no
     He -      Ca [LENNARD_JONES] p_0/k_B:  16.56031 [K], p_1: 2.86500 [A], shift/k_B:  -0.01226615 [K], tailcorrection: no
     He -   C_co2 [LENNARD_JONES] p_0/k_B:  17.15517 [K], p_1: 2.72000 [A], shift/k_B:  -0.00930512 [K], tailcorrection: no
     He -   O_co2 [LENNARD_JONES] p_0/k_B:  29.34451 [K], p_1: 2.84500 [A], shift/k_B:  -0.02084087 [K], tailcorrection: no
     He -    O_o2 [LENNARD_JONES] p_0/k_B:  23.11060 [K], p_1: 2.83000 [A], shift/k_B:  -0.01590112 [K], tailcorrection: no
     He -   O_com [ZERO_POTENTIAL]
     He -    N_n2 [LENNARD_JONES] p_0/k_B:  20.43155 [K], p_1: 2.97300 [A], shift/k_B:  -0.01889482 [K], tailcorrection: no
     He -   N_com [ZERO_POTENTIAL]
     He -      Ow [LENNARD_JONES] p_0/k_B:  31.25699 [K], p_1: 2.86850 [A], shift/k_B:  -0.02332211 [K], tailcorrection: no
     He -      Hw [LENNARD_JONES] p_0/k_B:   9.13090 [K], p_1: 2.74321 [A], shift/k_B:  -0.00521169 [K], tailcorrection: no
     He -      Lw [LENNARD_JONES] p_0/k_B:   7.76383 [K], p_1: 2.76000 [A], shift/k_B:  -0.00459662 [K], tailcorrection: no
     He -    H_h2 [LENNARD_JONES] p_0/k_B:  20.00075 [K], p_1: 2.79900 [A], shift/k_B:  -0.01288149 [K], tailcorrection: no
     He -   H_com [ZERO_POTENTIAL]
     He -   N_nh3 [LENNARD_JONES] p_0/k_B:  44.90546 [K], p_1: 3.03000 [A], shift/k_B:  -0.04653876 [K], tailcorrection: no
     He -   H_nh3 [LENNARD_JONES] p_0/k_B:   3.30151 [K], p_1: 1.82000 [A], shift/k_B:  -0.00016073 [K], tailcorrection: no
     He -   M_nh3 [LENNARD_JONES] p_0/k_B:   3.30151 [K], p_1: 1.82000 [A], shift/k_B:  -0.00016073 [K], tailcorrection: no
     Ar -      Ar [LENNARD_JONES] p_0/k_B: 124.07000 [K], p_1: 3.38000 [A], shift/k_B:  -0.24769804 [K], tailcorrection: no
     Ar -       O [LENNARD_JONES] p_0/k_B:  77.29797 [K], p_1: 3.20657 [A], shift/k_B:  -0.11252029 [K], tailcorrection: no
     Ar -      Oa [LENNARD_JONES] p_0/k_B:  77.29797 [K], p_1: 3.20657 [A], shift/k_B:  -0.11252029 [K], tailcorrection: no
     Ar -      Op [LENNARD_JONES] p_0/k_B:  77.29797 [K], p_1: 3.20657 [A], shift/k_B:  -0.11252029 [K], tailcorrection: no
     Ar -      Si [HARD_SPHERE] radius:   1.00000
     Ar -      Al [HARD_SPHERE] radius:   1.00000
     Ar -       P [LENNARD_JONES] p_0/k_B: 141.34706 [K], p_1: 3.53862 [A], shift/k_B:  -0.37151259 [K], tailcorrection: no
     Ar -      Co [LENNARD_JONES] p_0/k_B:  29.56488 [K], p_1: 2.96933 [A], shift/k_B:  -0.02713936 [K], tailcorrection: no
     Ar -      Be [LENNARD_JONES] p_0/k_B:  72.84555 [K], p_1: 2.91500 [A], shift/k_B:  -0.05985737 [K], tailcorrection: no
     Ar -      Ga [LENNARD_JONES] p_0/k_B: 160.96671 [K], p_1: 3.64241 [A], shift/k_B:  -0.50315085 [K], tailcorrection: no
     Ar -       H [LENNARD_JONES] p_0/k_B:  30.80589 [K], p_1: 3.11321 [A], shift/k_B:  -0.03755989 [K], tailcorrection: no
     Ar -       V [LENNARD_JONES] p_0/k_B:  31.60618 [K], p_1: 3.09049 [A], shift/k_B:  -0.03687959 [K], tailcorrection: no
     Ar -      Mg [LENNARD_JONES] p_0/k_B:  83.24799 [K], p_1: 3.03571 [A], shift/k_B:  -0.08725490 [K], tailcorrection: no
     Ar - CH5_sp3 [LENNARD_JONES] p_0/k_B:  77.05530 [K], p_1: 3.42650 [A], shift/k_B:  -0.16697066 [K], tailcorrection: no
     Ar - CH4_sp3 [LENNARD_JONES] p_0/k_B: 140.23229 [K], p_1: 3.55000 [A], shift/k_B:  -0.37575039 [K], tailcorrection: no
     Ar - CH3_sp3 [LENNARD_JONES] p_0/k_B: 110.26722 [K], p_1: 3.56500 [A], shift/k_B:  -0.30302431 [K], tailcorrection: no
     Ar - CH2_sp3 [LENNARD_JONES] p_0/k_B:  75.54614 [K], p_1: 3.66500 [A], shift/k_B:  -0.24506205 [K], tailcorrection: no
     Ar -  CH_sp3 [LENNARD_JONES] p_0/k_B:  45.92592 [K], p_1: 4.02500 [A], shift/k_B:  -0.26122023 [K], tailcorrection: no
     Ar -   C_sp3 [LENNARD_JONES] p_0/k_B:   9.96273 [K], p_1: 4.88000 [A], shift/k_B:  -0.17943247 [K], tailcorrection: no
     Ar - CH2_sp2 [LENNARD_JONES] p_0/k_B: 107.41746 [K], p_1: 3.53250 [A], shift/k_B:  -0.27942014 [K], tailcorrection: no
     Ar -  CH_sp2 [LENNARD_JONES] p_0/k_B:  81.09075 [K], p_1: 3.56000 [A], shift/k_B:  -0.22097730 [K], tailcorrection: no
     Ar -  C_benz [LENNARD_JONES] p_0/k_B:  61.71668 [K], p_1: 3.49000 [A], shift/k_B:  -0.14930170 [K], tailcorrection: no
     Ar -  H_benz [LENNARD_JONES] p_0/k_B:  56.19236 [K], p_1: 2.87000 [A], shift/k_B:  -0.04205909 [K], tailcorrection: no
     Ar -      Na [LENNARD_JONES] p_0/k_B:  43.13989 [K], p_1: 3.02000 [A], shift/k_B:  -0.04383115 [K], tailcorrection: no
     Ar -      Cl [LENNARD_JONES] p_0/k_B: 132.99499 [K], p_1: 3.44966 [A], shift/k_B:  -0.30006848 [K], tailcorrection: no
     Ar -      Ca [LENNARD_JONES] p_0/k_B:  55.87129 [K], p_1: 3.23500 [A], shift/k_B:  -0.08575120 [K], tailcorrection: no
     Ar -   C_co2 [LENNARD_JONES] p_0/k_B:  57.87823 [K], p_1: 3.09000 [A], shift/k_B:  -0.06747021 [K], tailcorrection: no
     Ar -   O_co2 [LENNARD_JONES] p_0/k_B:  99.00268 [K], p_1: 3.21500 [A], shift/k_B:  -0.14640121 [K], tailcorrection: no
     Ar -    O_o2 [LENNARD_JONES] p_0/k_B:  77.97070 [K], p_1: 3.20000 [A], shift/k_B:  -0.11211084 [K], tailcorrection: no
     Ar -   O_com [ZERO_POTENTIAL]
     Ar -    N_n2 [LENNARD_JONES] p_0/k_B:  68.93209 [K], p_1: 3.34300 [A], shift/k_B:  -0.12882767 [K], tailcorrection: no
     Ar -   N_com [ZERO_POTENTIAL]
     Ar -      Ow [LENNARD_JONES] p_0/k_B: 105.45504 [K], p_1: 3.23850 [A], shift/k_B:  -0.16290539 [K], tailcorrection: no
     Ar -      Hw [LENNARD_JONES] p_0/k_B:  30.80589 [K], p_1: 3.11321 [A], shift/k_B:  -0.03755989 [K], tailcorrection: no
     Ar -      Lw [LENNARD_JONES] p_0/k_B:  26.19365 [K], p_1: 3.13000 [A], shift/k_B:  -0.03298357 [K], tailcorrection: no
     Ar -    H_h2 [LENNARD_JONES] p_0/k_B:  67.47866 [K], p_1: 3.16900 [A], shift/k_B:  -0.09152190 [K], tailcorrection: no
     Ar -   H_com [ZERO_POTENTIAL]
     Ar -   N_nh3 [LENNARD_JONES] p_0/k_B: 151.50231 [K], p_1: 3.40000 [A], shift/k_B:  -0.31335782 [K], tailcorrection: no
     Ar -   H_nh3 [LENNARD_JONES] p_0/k_B:  11.13867 [K], p_1: 2.19000 [A], shift/k_B:  -0.00164609 [K], tailcorrection: no
     Ar -   M_nh3 [LENNARD_JONES] p_0/k_B:  11.13867 [K], p_1: 2.19000 [A], shift/k_B:  -0.00164609 [K], tailcorrection: no
      O -       O [LENNARD_JONES] p_0/k_B:  48.15810 [K], p_1: 3.03315 [A], shift/k_B:  -0.05022176 [K], tailcorrection: no
      O -      Oa [LENNARD_JONES] p_0/k_B:  48.15810 [K], p_1: 3.03315 [A], shift/k_B:  -0.05022176 [K], tailcorrection: no
      O -      Op [LENNARD_JONES] p_0/k_B:  48.15810 [K], p_1: 3.03315 [A], shift/k_B:  -0.05022176 [K], tailcorrection: no
      O -      Si [HARD_SPHERE] radius:   1.00000
      O -      Al [HARD_SPHERE] radius:   1.00000
      O -       P [LENNARD_JONES] p_0/k_B:  88.06190 [K], p_1: 3.36519 [A], shift/k_B:  -0.17124064 [K], tailcorrection: no
      O -      Co [LENNARD_JONES] p_0/k_B:  18.41948 [K], p_1: 2.79591 [A], shift/k_B:  -0.01178460 [K], tailcorrection: no
      O -      Be [LENNARD_JONES] p_0/k_B:  45.38416 [K], p_1: 2.74158 [A], shift/k_B:  -0.02581165 [K], tailcorrection: no
      O -      Ga [LENNARD_JONES] p_0/k_B: 100.28532 [K], p_1: 3.46898 [A], shift/k_B:  -0.23397374 [K], tailcorrection: no
      O -       H [LENNARD_JONES] p_0/k_B:  19.19265 [K], p_1: 2.93979 [A], shift/k_B:  -0.01659232 [K], tailcorrection: no
      O -       V [LENNARD_JONES] p_0/k_B:  19.69125 [K], p_1: 2.91707 [A], shift/k_B:  -0.01624940 [K], tailcorrection: no
      O -      Mg [LENNARD_JONES] p_0/k_B:  51.86508 [K], p_1: 2.86228 [A], shift/k_B:  -0.03819797 [K], tailcorrection: no
      O - CH5_sp3 [LENNARD_JONES] p_0/k_B:  48.00691 [K], p_1: 3.25307 [A], shift/k_B:  -0.07618410 [K], tailcorrection: no
      O - CH4_sp3 [LENNARD_JONES] p_0/k_B:  87.36738 [K], p_1: 3.37657 [A], shift/k_B:  -0.17336627 [K], tailcorrection: no
      O - CH3_sp3 [LENNARD_JONES] p_0/k_B:  68.69857 [K], p_1: 3.39158 [A], shift/k_B:  -0.13999333 [K], tailcorrection: no
      O - CH2_sp3 [LENNARD_JONES] p_0/k_B:  47.06668 [K], p_1: 3.49158 [A], shift/k_B:  -0.11416967 [K], tailcorrection: no
      O -  CH_sp3 [LENNARD_JONES] p_0/k_B:  28.61272 [K], p_1: 3.85157 [A], shift/k_B:  -0.12499330 [K], tailcorrection: no
      O -   C_sp3 [LENNARD_JONES] p_0/k_B:   6.20697 [K], p_1: 4.70657 [A], shift/k_B:  -0.09005301 [K], tailcorrection: no
      O - CH2_sp2 [LENNARD_JONES] p_0/k_B:  66.92311 [K], p_1: 3.35907 [A], shift/k_B:  -0.12872351 [K], tailcorrection: no
      O -  CH_sp2 [LENNARD_JONES] p_0/k_B:  50.52108 [K], p_1: 3.38658 [A], shift/k_B:  -0.10204456 [K], tailcorrection: no
      O -  C_benz [LENNARD_JONES] p_0/k_B:  38.45067 [K], p_1: 3.31658 [A], shift/k_B:  -0.06852069 [K], tailcorrection: no
      O -  H_benz [LENNARD_JONES] p_0/k_B:  35.00891 [K], p_1: 2.69658 [A], shift/k_B:  -0.01802894 [K], tailcorrection: no
      O -      Na [LENNARD_JONES] p_0/k_B:  26.87697 [K], p_1: 2.84658 [A], shift/k_B:  -0.01915187 [K], tailcorrection: no
      O -      Cl [LENNARD_JONES] p_0/k_B:  82.85840 [K], p_1: 3.27623 [A], shift/k_B:  -0.13720800 [K], tailcorrection: no
      O -      Ca [LENNARD_JONES] p_0/k_B:  34.80888 [K], p_1: 3.06157 [A], shift/k_B:  -0.03838947 [K], tailcorrection: no
      O -   C_co2 [LENNARD_JONES] p_0/k_B:  36.05924 [K], p_1: 2.91657 [A], shift/k_B:  -0.02972613 [K], tailcorrection: no
      O -   O_co2 [LENNARD_JONES] p_0/k_B:  61.68055 [K], p_1: 3.04157 [A], shift/k_B:  -0.06540286 [K], tailcorrection: no
      O -    O_o2 [LENNARD_JONES] p_0/k_B:  48.57723 [K], p_1: 3.02658 [A], shift/k_B:  -0.05000369 [K], tailcorrection: no
      O -   O_com [ZERO_POTENTIAL]
      O -    N_n2 [LENNARD_JONES] p_0/k_B:  42.94600 [K], p_1: 3.16958 [A], shift/k_B:  -0.05831146 [K], tailcorrection: no
      O -   N_com [ZERO_POTENTIAL]
      O -      Ow [LENNARD_JONES] p_0/k_B:  65.70049 [K], p_1: 3.06508 [A], shift/k_B:  -0.07295703 [K], tailcorrection: no
      O -      Hw [LENNARD_JONES] p_0/k_B:  19.19265 [K], p_1: 2.93979 [A], shift/k_B:  -0.01659232 [K], tailcorrection: no
      O -      Lw [LENNARD_JONES] p_0/k_B:  16.31914 [K], p_1: 2.95657 [A], shift/k_B:  -0.01459842 [K], tailcorrection: no
      O -    H_h2 [LENNARD_JONES] p_0/k_B:  42.04048 [K], p_1: 2.99558 [A], shift/k_B:  -0.04068331 [K], tailcorrection: no
      O -   H_com [ZERO_POTENTIAL]
      O -   N_nh3 [LENNARD_JONES] p_0/k_B:  94.38882 [K], p_1: 3.22657 [A], shift/k_B:  -0.14261969 [K], tailcorrection: no
      O -   H_nh3 [LENNARD_JONES] p_0/k_B:   6.93960 [K], p_1: 2.01658 [A], shift/k_B:  -0.00062515 [K], tailcorrection: no
      O -   M_nh3 [LENNARD_JONES] p_0/k_B:   6.93960 [K], p_1: 2.01658 [A], shift/k_B:  -0.00062515 [K], tailcorrection: no
     Oa -      Oa [LENNARD_JONES] p_0/k_B:  48.15810 [K], p_1: 3.03315 [A], shift/k_B:  -0.05022176 [K], tailcorrection: no
     Oa -      Op [LENNARD_JONES] p_0/k_B:  48.15810 [K], p_1: 3.03315 [A], shift/k_B:  -0.05022176 [K], tailcorrection: no
     Oa -      Si [HARD_SPHERE] radius:   1.00000
     Oa -      Al [HARD_SPHERE] radius:   1.00000
     Oa -       P [LENNARD_JONES] p_0/k_B:  88.06190 [K], p_1: 3.36519 [A], shift/k_B:  -0.17124064 [K], tailcorrection: no
     Oa -      Co [LENNARD_JONES] p_0/k_B:  18.41948 [K], p_1: 2.79591 [A], shift/k_B:  -0.01178460 [K], tailcorrection: no
     Oa -      Be [LENNARD_JONES] p_0/k_B:  45.38416 [K], p_1: 2.74158 [A], shift/k_B:  -0.02581165 [K], tailcorrection: no
     Oa -      Ga [LENNARD_JONES] p_0/k_B: 100.28532 [K], p_1: 3.46898 [A], shift/k_B:  -0.23397374 [K], tailcorrection: no
     Oa -       H [LENNARD_JONES] p_0/k_B:  19.19265 [K], p_1: 2.93979 [A], shift/k_B:  -0.01659232 [K], tailcorrection: no
     Oa -       V [LENNARD_JONES] p_0/k_B:  19.69125 [K], p_1: 2.91707 [A], shift/k_B:  -0.01624940 [K], tailcorrection: no
     Oa -      Mg [LENNARD_JONES] p_0/k_B:  51.86508 [K], p_1: 2.86228 [A], shift/k_B:  -0.03819797 [K], tailcorrection: no
     Oa - CH5_sp3 [LENNARD_JONES] p_0/k_B:  48.00691 [K], p_1: 3.25307 [A], shift/k_B:  -0.07618410 [K], tailcorrection: no
     Oa - CH4_sp3 [LENNARD_JONES] p_0/k_B:  87.36738 [K], p_1: 3.37657 [A], shift/k_B:  -0.17336627 [K], tailcorrection: no
     Oa - CH3_sp3 [LENNARD_JONES] p_0/k_B:  68.69857 [K], p_1: 3.39158 [A], shift/k_B:  -0.13999333 [K], tailcorrection: no
     Oa - CH2_sp3 [LENNARD_JONES] p_0/k_B:  47.06668 [K], p_1: 3.49158 [A], shift/k_B:  -0.11416967 [K], tailcorrection: no
     Oa -  CH_sp3 [LENNARD_JONES] p_0/k_B:  28.61272 [K], p_1: 3.85157 [A], shift/k_B:  -0.12499330 [K], tailcorrection: no
     Oa -   C_sp3 [LENNARD_JONES] p_0/k_B:   6.20697 [K], p_1: 4.70657 [A], shift/k_B:  -0.09005301 [K], tailcorrection: no
     Oa - CH2_sp2 [LENNARD_JONES] p_0/k_B:  66.92311 [K], p_1: 3.35907 [A], shift/k_B:  -0.12872351 [K], tailcorrection: no
     Oa -  CH_sp2 [LENNARD_JONES] p_0/k_B:  50.52108 [K], p_1: 3.38658 [A], shift/k_B:  -0.10204456 [K], tailcorrection: no
     Oa -  C_benz [LENNARD_JONES] p_0/k_B:  38.45067 [K], p_1: 3.31658 [A], shift/k_B:  -0.06852069 [K], tailcorrection: no
     Oa -  H_benz [LENNARD_JONES] p_0/k_B:  35.00891 [K], p_1: 2.69658 [A], shift/k_B:  -0.01802894 [K], tailcorrection: no
     Oa -      Na [LENNARD_JONES] p_0/k_B:  26.87697 [K], p_1: 2.84658 [A], shift/k_B:  -0.01915187 [K], tailcorrection: no
     Oa -      Cl [LENNARD_JONES] p_0/k_B:  82.85840 [K], p_1: 3.27623 [A], shift/k_B:  -0.13720800 [K], tailcorrection: no
     Oa -      Ca [LENNARD_JONES] p_0/k_B:  34.80888 [K], p_1: 3.06157 [A], shift/k_B:  -0.03838947 [K], tailcorrection: no
     Oa -   C_co2 [LENNARD_JONES] p_0/k_B:  36.05924 [K], p_1: 2.91657 [A], shift/k_B:  -0.02972613 [K], tailcorrection: no
     Oa -   O_co2 [LENNARD_JONES] p_0/k_B:  61.68055 [K], p_1: 3.04157 [A], shift/k_B:  -0.06540286 [K], tailcorrection: no
     Oa -    O_o2 [LENNARD_JONES] p_0/k_B:  48.57723 [K], p_1: 3.02658 [A], shift/k_B:  -0.05000369 [K], tailcorrection: no
     Oa -   O_com [ZERO_POTENTIAL]
     Oa -    N_n2 [LENNARD_JONES] p_0/k_B:  42.94600 [K], p_1: 3.16958 [A], shift/k_B:  -0.05831146 [K], tailcorrection: no
     Oa -   N_com [ZERO_POTENTIAL]
     Oa -      Ow [LENNARD_JONES] p_0/k_B:  65.70049 [K], p_1: 3.06508 [A], shift/k_B:  -0.07295703 [K], tailcorrection: no
     Oa -      Hw [LENNARD_JONES] p_0/k_B:  19.19265 [K], p_1: 2.93979 [A], shift/k_B:  -0.01659232 [K], tailcorrection: no
     Oa -      Lw [LENNARD_JONES] p_0/k_B:  16.31914 [K], p_1: 2.95657 [A], shift/k_B:  -0.01459842 [K], tailcorrection: no
     Oa -    H_h2 [LENNARD_JONES] p_0/k_B:  42.04048 [K], p_1: 2.99558 [A], shift/k_B:  -0.04068331 [K], tailcorrection: no
     Oa -   H_com [ZERO_POTENTIAL]
     Oa -   N_nh3 [LENNARD_JONES] p_0/k_B:  94.38882 [K], p_1: 3.22657 [A], shift/k_B:  -0.14261969 [K], tailcorrection: no
     Oa -   H_nh3 [LENNARD_JONES] p_0/k_B:   6.93960 [K], p_1: 2.01658 [A], shift/k_B:  -0.00062515 [K], tailcorrection: no
     Oa -   M_nh3 [LENNARD_JONES] p_0/k_B:   6.93960 [K], p_1: 2.01658 [A], shift/k_B:  -0.00062515 [K], tailcorrection: no
     Op -      Op [LENNARD_JONES] p_0/k_B:  48.15810 [K], p_1: 3.03315 [A], shift/k_B:  -0.05022176 [K], tailcorrection: no
     Op -      Si [HARD_SPHERE] radius:   1.00000
     Op -      Al [HARD_SPHERE] radius:   1.00000
     Op -       P [LENNARD_JONES] p_0/k_B:  88.06190 [K], p_1: 3.36519 [A], shift/k_B:  -0.17124064 [K], tailcorrection: no
     Op -      Co [LENNARD_JONES] p_0/k_B:  18.41948 [K], p_1: 2.79591 [A], shift/k_B:  -0.01178460 [K], tailcorrection: no
     Op -      Be [LENNARD_JONES] p_0/k_B:  45.38416 [K], p_1: 2.74158 [A], shift/k_B:  -0.02581165 [K], tailcorrection: no
     Op -      Ga [LENNARD_JONES] p_0/k_B: 100.28532 [K], p_1: 3.46898 [A], shift/k_B:  -0.23397374 [K], tailcorrection: no
     Op -       H [LENNARD_JONES] p_0/k_B:  19.19265 [K], p_1: 2.93979 [A], shift/k_B:  -0.01659232 [K], tailcorrection: no
     Op -       V [LENNARD_JONES] p_0/k_B:  19.69125 [K], p_1: 2.91707 [A], shift/k_B:  -0.01624940 [K], tailcorrection: no
     Op -      Mg [LENNARD_JONES] p_0/k_B:  51.86508 [K], p_1: 2.86228 [A], shift/k_B:  -0.03819797 [K], tailcorrection: no
     Op - CH5_sp3 [LENNARD_JONES] p_0/k_B:  48.00691 [K], p_1: 3.25307 [A], shift/k_B:  -0.07618410 [K], tailcorrection: no
     Op - CH4_sp3 [LENNARD_JONES] p_0/k_B:  87.36738 [K], p_1: 3.37657 [A], shift/k_B:  -0.17336627 [K], tailcorrection: no
     Op - CH3_sp3 [LENNARD_JONES] p_0/k_B:  68.69857 [K], p_1: 3.39158 [A], shift/k_B:  -0.13999333 [K], tailcorrection: no
     Op - CH2_sp3 [LENNARD_JONES] p_0/k_B:  47.06668 [K], p_1: 3.49158 [A], shift/k_B:  -0.11416967 [K], tailcorrection: no
     Op -  CH_sp3 [LENNARD_JONES] p_0/k_B:  28.61272 [K], p_1: 3.85157 [A], shift/k_B:  -0.12499330 [K], tailcorrection: no
     Op -   C_sp3 [LENNARD_JONES] p_0/k_B:   6.20697 [K], p_1: 4.70657 [A], shift/k_B:  -0.09005301 [K], tailcorrection: no
     Op - CH2_sp2 [LENNARD_JONES] p_0/k_B:  66.92311 [K], p_1: 3.35907 [A], shift/k_B:  -0.12872351 [K], tailcorrection: no
     Op -  CH_sp2 [LENNARD_JONES] p_0/k_B:  50.52108 [K], p_1: 3.38658 [A], shift/k_B:  -0.10204456 [K], tailcorrection: no
     Op -  C_benz [LENNARD_JONES] p_0/k_B:  38.45067 [K], p_1: 3.31658 [A], shift/k_B:  -0.06852069 [K], tailcorrection: no
     Op -  H_benz [LENNARD_JONES] p_0/k_B:  35.00891 [K], p_1: 2.69658 [A], shift/k_B:  -0.01802894 [K], tailcorrection: no
     Op -      Na [LENNARD_JONES] p_0/k_B:  26.87697 [K], p_1: 2.84658 [A], shift/k_B:  -0.01915187 [K], tailcorrection: no
     Op -      Cl [LENNARD_JONES] p_0/k_B:  82.85840 [K], p_1: 3.27623 [A], shift/k_B:  -0.13720800 [K], tailcorrection: no
     Op -      Ca [LENNARD_JONES] p_0/k_B:  34.80888 [K], p_1: 3.06157 [A], shift/k_B:  -0.03838947 [K], tailcorrection: no
     Op -   C_co2 [LENNARD_JONES] p_0/k_B:  36.05924 [K], p_1: 2.91657 [A], shift/k_B:  -0.02972613 [K], tailcorrection: no
     Op -   O_co2 [LENNARD_JONES] p_0/k_B:  61.68055 [K], p_1: 3.04157 [A], shift/k_B:  -0.06540286 [K], tailcorrection: no
     Op -    O_o2 [LENNARD_JONES] p_0/k_B:  48.57723 [K], p_1: 3.02658 [A], shift/k_B:  -0.05000369 [K], tailcorrection: no
     Op -   O_com [ZERO_POTENTIAL]
     Op -    N_n2 [LENNARD_JONES] p_0/k_B:  42.94600 [K], p_1: 3.16958 [A], shift/k_B:  -0.05831146 [K], tailcorrection: no
     Op -   N_com [ZERO_POTENTIAL]
     Op -      Ow [LENNARD_JONES] p_0/k_B:  65.70049 [K], p_1: 3.06508 [A], shift/k_B:  -0.07295703 [K], tailcorrection: no
     Op -      Hw [LENNARD_JONES] p_0/k_B:  19.19265 [K], p_1: 2.93979 [A], shift/k_B:  -0.01659232 [K], tailcorrection: no
     Op -      Lw [LENNARD_JONES] p_0/k_B:  16.31914 [K], p_1: 2.95657 [A], shift/k_B:  -0.01459842 [K], tailcorrection: no
     Op -    H_h2 [LENNARD_JONES] p_0/k_B:  42.04048 [K], p_1: 2.99558 [A], shift/k_B:  -0.04068331 [K], tailcorrection: no
     Op -   H_com [ZERO_POTENTIAL]
     Op -   N_nh3 [LENNARD_JONES] p_0/k_B:  94.38882 [K], p_1: 3.22657 [A], shift/k_B:  -0.14261969 [K], tailcorrection: no
     Op -   H_nh3 [LENNARD_JONES] p_0/k_B:   6.93960 [K], p_1: 2.01658 [A], shift/k_B:  -0.00062515 [K], tailcorrection: no
     Op -   M_nh3 [LENNARD_JONES] p_0/k_B:   6.93960 [K], p_1: 2.01658 [A], shift/k_B:  -0.00062515 [K], tailcorrection: no
     Si -      Si [HARD_SPHERE] radius:   1.00000
     Si -      Al [HARD_SPHERE] radius:   1.00000
     Si -       P [HARD_SPHERE] radius:   1.00000
     Si -      Co [HARD_SPHERE] radius:   1.00000
     Si -      Be [HARD_SPHERE] radius:   1.00000
     Si -      Ga [HARD_SPHERE] radius:   1.00000
     Si -       H [HARD_SPHERE] radius:   1.00000
     Si -       V [HARD_SPHERE] radius:   1.00000
     Si -      Mg [HARD_SPHERE] radius:   1.00000
     Si - CH5_sp3 [HARD_SPHERE] radius:   1.00000
     Si - CH4_sp3 [HARD_SPHERE] radius:   1.00000
     Si - CH3_sp3 [HARD_SPHERE] radius:   1.00000
     Si - CH2_sp3 [HARD_SPHERE] radius:   1.00000
     Si -  CH_sp3 [HARD_SPHERE] radius:   1.00000
     Si -   C_sp3 [HARD_SPHERE] radius:   1.00000
     Si - CH2_sp2 [HARD_SPHERE] radius:   1.00000
     Si -  CH_sp2 [HARD_SPHERE] radius:   1.00000
     Si -  C_benz [HARD_SPHERE] radius:   1.00000
     Si -  H_benz [HARD_SPHERE] radius:   1.00000
     Si -      Na [HARD_SPHERE] radius:   1.00000
     Si -      Cl [HARD_SPHERE] radius:   1.00000
     Si -      Ca [HARD_SPHERE] radius:   1.00000
     Si -   C_co2 [HARD_SPHERE] radius:   1.00000
     Si -   O_co2 [HARD_SPHERE] radius:   1.00000
     Si -    O_o2 [HARD_SPHERE] radius:   1.00000
     Si -   O_com [HARD_SPHERE] radius:   1.00000
     Si -    N_n2 [HARD_SPHERE] radius:   1.00000
     Si -   N_com [HARD_SPHERE] radius:   1.00000
     Si -      Ow [HARD_SPHERE] radius:   1.00000
     Si -      Hw [HARD_SPHERE] radius:   1.00000
     Si -      Lw [HARD_SPHERE] radius:   1.00000
     Si -    H_h2 [HARD_SPHERE] radius:   1.00000
     Si -   H_com [HARD_SPHERE] radius:   1.00000
     Si -   N_nh3 [HARD_SPHERE] radius:   1.00000
     Si -   H_nh3 [HARD_SPHERE] radius:   1.00000
     Si -   M_nh3 [HARD_SPHERE] radius:   1.00000
     Al -      Al [HARD_SPHERE] radius:   1.00000
     Al -       P [HARD_SPHERE] radius:   1.00000
     Al -      Co [HARD_SPHERE] radius:   1.00000
     Al -      Be [HARD_SPHERE] radius:   1.00000
     Al -      Ga [HARD_SPHERE] radius:   1.00000
     Al -       H [HARD_SPHERE] radius:   1.00000
     Al -       V [HARD_SPHERE] radius:   1.00000
     Al -      Mg [HARD_SPHERE] radius:   1.00000
     Al - CH5_sp3 [HARD_SPHERE] radius:   1.00000
     Al - CH4_sp3 [HARD_SPHERE] radius:   1.00000
     Al - CH3_sp3 [HARD_SPHERE] radius:   1.00000
     Al - CH2_sp3 [HARD_SPHERE] radius:   1.00000
     Al -  CH_sp3 [HARD_SPHERE] radius:   1.00000
     Al -   C_sp3 [HARD_SPHERE] radius:   1.00000
     Al - CH2_sp2 [HARD_SPHERE] radius:   1.00000
     Al -  CH_sp2 [HARD_SPHERE] radius:   1.00000
     Al -  C_benz [HARD_SPHERE] radius:   1.00000
     Al -  H_benz [HARD_SPHERE] radius:   1.00000
     Al -      Na [HARD_SPHERE] radius:   1.00000
     Al -      Cl [HARD_SPHERE] radius:   1.00000
     Al -      Ca [HARD_SPHERE] radius:   1.00000
     Al -   C_co2 [HARD_SPHERE] radius:   1.00000
     Al -   O_co2 [HARD_SPHERE] radius:   1.00000
     Al -    O_o2 [HARD_SPHERE] radius:   1.00000
     Al -   O_com [HARD_SPHERE] radius:   1.00000
     Al -    N_n2 [HARD_SPHERE] radius:   1.00000
     Al -   N_com [HARD_SPHERE] radius:   1.00000
     Al -      Ow [HARD_SPHERE] radius:   1.00000
     Al -      Hw [HARD_SPHERE] radius:   1.00000
     Al -      Lw [HARD_SPHERE] radius:   1.00000
     Al -    H_h2 [HARD_SPHERE] radius:   1.00000
     Al -   H_com [HARD_SPHERE] radius:   1.00000
     Al -   N_nh3 [HARD_SPHERE] radius:   1.00000
     Al -   H_nh3 [HARD_SPHERE] radius:   1.00000
     Al -   M_nh3 [HARD_SPHERE] radius:   1.00000
      P -       P [LENNARD_JONES] p_0/k_B: 161.03000 [K], p_1: 3.69723 [A], shift/k_B:  -0.55051158 [K], tailcorrection: no
      P -      Co [LENNARD_JONES] p_0/k_B:  33.68186 [K], p_1: 3.12794 [A], shift/k_B:  -0.04224613 [K], tailcorrection: no
      P -      Be [LENNARD_JONES] p_0/k_B:  82.98948 [K], p_1: 3.07362 [A], shift/k_B:  -0.09370649 [K], tailcorrection: no
      P -      Ga [LENNARD_JONES] p_0/k_B: 183.38174 [K], p_1: 3.80102 [A], shift/k_B:  -0.74010046 [K], tailcorrection: no
      P -       H [LENNARD_JONES] p_0/k_B:  35.09569 [K], p_1: 3.27182 [A], shift/k_B:  -0.05764852 [K], tailcorrection: no
      P -       V [LENNARD_JONES] p_0/k_B:  36.00743 [K], p_1: 3.24911 [A], shift/k_B:  -0.05672571 [K], tailcorrection: no
      P -      Mg [LENNARD_JONES] p_0/k_B:  94.84048 [K], p_1: 3.19432 [A], shift/k_B:  -0.13492184 [K], tailcorrection: no
      P - CH5_sp3 [LENNARD_JONES] p_0/k_B:  87.78544 [K], p_1: 3.58511 [A], shift/k_B:  -0.24951749 [K], tailcorrection: no
      P - CH4_sp3 [LENNARD_JONES] p_0/k_B: 159.75999 [K], p_1: 3.70861 [A], shift/k_B:  -0.55632999 [K], tailcorrection: no
      P - CH3_sp3 [LENNARD_JONES] p_0/k_B: 125.62221 [K], p_1: 3.72361 [A], shift/k_B:  -0.44816683 [K], tailcorrection: no
      P - CH2_sp3 [LENNARD_JONES] p_0/k_B:  86.06614 [K], p_1: 3.82362 [A], shift/k_B:  -0.35991092 [K], tailcorrection: no
      P -  CH_sp3 [LENNARD_JONES] p_0/k_B:  52.32122 [K], p_1: 4.18361 [A], shift/k_B:  -0.37512853 [K], tailcorrection: no
      P -   C_sp3 [LENNARD_JONES] p_0/k_B:  11.35007 [K], p_1: 5.03862 [A], shift/k_B:  -0.24742950 [K], tailcorrection: no
      P - CH2_sp2 [LENNARD_JONES] p_0/k_B: 122.37561 [K], p_1: 3.69111 [A], shift/k_B:  -0.41423316 [K], tailcorrection: no
      P -  CH_sp2 [LENNARD_JONES] p_0/k_B:  92.38284 [K], p_1: 3.71861 [A], shift/k_B:  -0.32693875 [K], tailcorrection: no
      P -  C_benz [LENNARD_JONES] p_0/k_B:  70.31089 [K], p_1: 3.64861 [A], shift/k_B:  -0.22203430 [K], tailcorrection: no
      P -  H_benz [LENNARD_JONES] p_0/k_B:  64.01729 [K], p_1: 3.02861 [A], shift/k_B:  -0.06616403 [K], tailcorrection: no
      P -      Na [LENNARD_JONES] p_0/k_B:  49.14723 [K], p_1: 3.17861 [A], shift/k_B:  -0.06788113 [K], tailcorrection: no
      P -      Cl [LENNARD_JONES] p_0/k_B: 151.51488 [K], p_1: 3.60827 [A], shift/k_B:  -0.44761483 [K], tailcorrection: no
      P -      Ca [LENNARD_JONES] p_0/k_B:  63.65151 [K], p_1: 3.39361 [A], shift/k_B:  -0.13017705 [K], tailcorrection: no
      P -   C_co2 [LENNARD_JONES] p_0/k_B:  65.93793 [K], p_1: 3.24862 [A], shift/k_B:  -0.10378301 [K], tailcorrection: no
      P -   O_co2 [LENNARD_JONES] p_0/k_B: 112.78905 [K], p_1: 3.37362 [A], shift/k_B:  -0.22263739 [K], tailcorrection: no
      P -    O_o2 [LENNARD_JONES] p_0/k_B:  88.82832 [K], p_1: 3.35861 [A], shift/k_B:  -0.17071688 [K], tailcorrection: no
      P -   O_com [ZERO_POTENTIAL]
      P -    N_n2 [LENNARD_JONES] p_0/k_B:  78.53106 [K], p_1: 3.50162 [A], shift/k_B:  -0.19380105 [K], tailcorrection: no
      P -   N_com [ZERO_POTENTIAL]
      P -      Ow [LENNARD_JONES] p_0/k_B: 120.13993 [K], p_1: 3.39711 [A], shift/k_B:  -0.24722807 [K], tailcorrection: no
      P -      Hw [LENNARD_JONES] p_0/k_B:  35.09569 [K], p_1: 3.27182 [A], shift/k_B:  -0.05764852 [K], tailcorrection: no
      P -      Lw [LENNARD_JONES] p_0/k_B:  29.84118 [K], p_1: 3.28862 [A], shift/k_B:  -0.05054552 [K], tailcorrection: no
      P -    H_h2 [LENNARD_JONES] p_0/k_B:  76.87523 [K], p_1: 3.32761 [A], shift/k_B:  -0.13975259 [K], tailcorrection: no
      P -   H_com [ZERO_POTENTIAL]
      P -   N_nh3 [LENNARD_JONES] p_0/k_B: 172.59939 [K], p_1: 3.55861 [A], shift/k_B:  -0.46924789 [K], tailcorrection: no
      P -   H_nh3 [LENNARD_JONES] p_0/k_B:  12.68976 [K], p_1: 2.34861 [A], shift/k_B:  -0.00285281 [K], tailcorrection: no
      P -   M_nh3 [LENNARD_JONES] p_0/k_B:  12.68976 [K], p_1: 2.34861 [A], shift/k_B:  -0.00285281 [K], tailcorrection: no
     Co -      Co [LENNARD_JONES] p_0/k_B:   7.04507 [K], p_1: 2.55866 [A], shift/k_B:  -0.00264784 [K], tailcorrection: no
     Co -      Be [LENNARD_JONES] p_0/k_B:  17.35850 [K], p_1: 2.50433 [A], shift/k_B:  -0.00573586 [K], tailcorrection: no
     Co -      Ga [LENNARD_JONES] p_0/k_B:  38.35706 [K], p_1: 3.23174 [A], shift/k_B:  -0.05851491 [K], tailcorrection: no
     Co -       H [LENNARD_JONES] p_0/k_B:   7.34079 [K], p_1: 2.70254 [A], shift/k_B:  -0.00383082 [K], tailcorrection: no
     Co -       V [LENNARD_JONES] p_0/k_B:   7.53150 [K], p_1: 2.67983 [A], shift/k_B:  -0.00373627 [K], tailcorrection: no
     Co -      Mg [LENNARD_JONES] p_0/k_B:  19.83732 [K], p_1: 2.62504 [A], shift/k_B:  -0.00869398 [K], tailcorrection: no
     Co - CH5_sp3 [LENNARD_JONES] p_0/k_B:  18.36165 [K], p_1: 3.01582 [A], shift/k_B:  -0.01850170 [K], tailcorrection: no
     Co - CH4_sp3 [LENNARD_JONES] p_0/k_B:  33.41622 [K], p_1: 3.13933 [A], shift/k_B:  -0.04283634 [K], tailcorrection: no
     Co - CH3_sp3 [LENNARD_JONES] p_0/k_B:  26.27578 [K], p_1: 3.15433 [A], shift/k_B:  -0.03465993 [K], tailcorrection: no
     Co - CH2_sp3 [LENNARD_JONES] p_0/k_B:  18.00203 [K], p_1: 3.25433 [A], shift/k_B:  -0.02863458 [K], tailcorrection: no
     Co -  CH_sp3 [LENNARD_JONES] p_0/k_B:  10.94377 [K], p_1: 3.61433 [A], shift/k_B:  -0.03265744 [K], tailcorrection: no
     Co -   C_sp3 [LENNARD_JONES] p_0/k_B:   2.37404 [K], p_1: 4.46933 [A], shift/k_B:  -0.02527866 [K], tailcorrection: no
     Co - CH2_sp2 [LENNARD_JONES] p_0/k_B:  25.59671 [K], p_1: 3.12183 [A], shift/k_B:  -0.03173054 [K], tailcorrection: no
     Co -  CH_sp2 [LENNARD_JONES] p_0/k_B:  19.32327 [K], p_1: 3.14933 [A], shift/k_B:  -0.02524761 [K], tailcorrection: no
     Co -  C_benz [LENNARD_JONES] p_0/k_B:  14.70659 [K], p_1: 3.07933 [A], shift/k_B:  -0.01679182 [K], tailcorrection: no
     Co -  H_benz [LENNARD_JONES] p_0/k_B:  13.39018 [K], p_1: 2.45933 [A], shift/k_B:  -0.00396851 [K], tailcorrection: no
     Co -      Na [LENNARD_JONES] p_0/k_B:  10.27989 [K], p_1: 2.60933 [A], shift/k_B:  -0.00434599 [K], tailcorrection: no
     Co -      Cl [LENNARD_JONES] p_0/k_B:  31.69163 [K], p_1: 3.03899 [A], shift/k_B:  -0.03343321 [K], tailcorrection: no
     Co -      Ca [LENNARD_JONES] p_0/k_B:  13.31368 [K], p_1: 2.82433 [A], shift/k_B:  -0.00905085 [K], tailcorrection: no
     Co -   C_co2 [LENNARD_JONES] p_0/k_B:  13.79191 [K], p_1: 2.67933 [A], shift/k_B:  -0.00683440 [K], tailcorrection: no
     Co -   O_co2 [LENNARD_JONES] p_0/k_B:  23.59154 [K], p_1: 2.80433 [A], shift/k_B:  -0.01536854 [K], tailcorrection: no
     Co -    O_o2 [LENNARD_JONES] p_0/k_B:  18.57979 [K], p_1: 2.78933 [A], shift/k_B:  -0.01172044 [K], tailcorrection: no
     Co -   O_com [ZERO_POTENTIAL]
     Co -    N_n2 [LENNARD_JONES] p_0/k_B:  16.42596 [K], p_1: 2.93233 [A], shift/k_B:  -0.01398582 [K], tailcorrection: no
     Co -   N_com [ZERO_POTENTIAL]
     Co -      Ow [LENNARD_JONES] p_0/k_B:  25.12908 [K], p_1: 2.82783 [A], shift/k_B:  -0.01721054 [K], tailcorrection: no
     Co -      Hw [LENNARD_JONES] p_0/k_B:   7.34079 [K], p_1: 2.70254 [A], shift/k_B:  -0.00383082 [K], tailcorrection: no
     Co -      Lw [LENNARD_JONES] p_0/k_B:   6.24173 [K], p_1: 2.71933 [A], shift/k_B:  -0.00338057 [K], tailcorrection: no
     Co -    H_h2 [LENNARD_JONES] p_0/k_B:  16.07962 [K], p_1: 2.75833 [A], shift/k_B:  -0.00948553 [K], tailcorrection: no
     Co -   H_com [ZERO_POTENTIAL]
     Co -   N_nh3 [LENNARD_JONES] p_0/k_B:  36.10177 [K], p_1: 2.98933 [A], shift/k_B:  -0.03450169 [K], tailcorrection: no
     Co -   H_nh3 [LENNARD_JONES] p_0/k_B:   2.65426 [K], p_1: 1.77933 [A], shift/k_B:  -0.00011284 [K], tailcorrection: no
     Co -   M_nh3 [LENNARD_JONES] p_0/k_B:   2.65426 [K], p_1: 1.77933 [A], shift/k_B:  -0.00011284 [K], tailcorrection: no
     Be -      Be [LENNARD_JONES] p_0/k_B:  42.77000 [K], p_1: 2.45000 [A], shift/k_B:  -0.01239016 [K], tailcorrection: no
     Be -      Ga [LENNARD_JONES] p_0/k_B:  94.50881 [K], p_1: 3.17741 [A], shift/k_B:  -0.13023586 [K], tailcorrection: no
     Be -       H [LENNARD_JONES] p_0/k_B:  18.08714 [K], p_1: 2.64821 [A], shift/k_B:  -0.00835616 [K], tailcorrection: no
     Be -       V [LENNARD_JONES] p_0/k_B:  18.55702 [K], p_1: 2.62549 [A], shift/k_B:  -0.00814142 [K], tailcorrection: no
     Be -      Mg [LENNARD_JONES] p_0/k_B:  48.87761 [K], p_1: 2.57071 [A], shift/k_B:  -0.01889531 [K], tailcorrection: no
     Be - CH5_sp3 [LENNARD_JONES] p_0/k_B:  45.24168 [K], p_1: 2.96150 [A], shift/k_B:  -0.04087701 [K], tailcorrection: no
     Be - CH4_sp3 [LENNARD_JONES] p_0/k_B:  82.33496 [K], p_1: 3.08500 [A], shift/k_B:  -0.09505225 [K], tailcorrection: no
     Be - CH3_sp3 [LENNARD_JONES] p_0/k_B:  64.74149 [K], p_1: 3.10000 [A], shift/k_B:  -0.07694781 [K], tailcorrection: no
     Be - CH2_sp3 [LENNARD_JONES] p_0/k_B:  44.35561 [K], p_1: 3.20000 [A], shift/k_B:  -0.06377709 [K], tailcorrection: no
     Be -  CH_sp3 [LENNARD_JONES] p_0/k_B:  26.96461 [K], p_1: 3.56000 [A], shift/k_B:  -0.07348021 [K], tailcorrection: no
     Be -   C_sp3 [LENNARD_JONES] p_0/k_B:   5.84944 [K], p_1: 4.41500 [A], shift/k_B:  -0.05788858 [K], tailcorrection: no
     Be - CH2_sp2 [LENNARD_JONES] p_0/k_B:  63.06830 [K], p_1: 3.06750 [A], shift/k_B:  -0.07036713 [K], tailcorrection: no
     Be -  CH_sp2 [LENNARD_JONES] p_0/k_B:  47.61103 [K], p_1: 3.09500 [A], shift/k_B:  -0.05604232 [K], tailcorrection: no
     Be -  C_benz [LENNARD_JONES] p_0/k_B:  36.23588 [K], p_1: 3.02500 [A], shift/k_B:  -0.03718366 [K], tailcorrection: no
     Be -  H_benz [LENNARD_JONES] p_0/k_B:  32.99237 [K], p_1: 2.40500 [A], shift/k_B:  -0.00855162 [K], tailcorrection: no
     Be -      Na [LENNARD_JONES] p_0/k_B:  25.32884 [K], p_1: 2.55500 [A], shift/k_B:  -0.00943828 [K], tailcorrection: no
     Be -      Cl [LENNARD_JONES] p_0/k_B:  78.08570 [K], p_1: 2.98466 [A], shift/k_B:  -0.07392824 [K], tailcorrection: no
     Be -      Ca [LENNARD_JONES] p_0/k_B:  32.80386 [K], p_1: 2.77000 [A], shift/k_B:  -0.01984771 [K], tailcorrection: no
     Be -   C_co2 [LENNARD_JONES] p_0/k_B:  33.98220 [K], p_1: 2.62500 [A], shift/k_B:  -0.01489197 [K], tailcorrection: no
     Be -   O_co2 [LENNARD_JONES] p_0/k_B:  58.12770 [K], p_1: 2.75000 [A], shift/k_B:  -0.03367355 [K], tailcorrection: no
     Be -    O_o2 [LENNARD_JONES] p_0/k_B:  45.77914 [K], p_1: 2.73500 [A], shift/k_B:  -0.02566394 [K], tailcorrection: no
     Be -   O_com [ZERO_POTENTIAL]
     Be -    N_n2 [LENNARD_JONES] p_0/k_B:  40.47228 [K], p_1: 2.87800 [A], shift/k_B:  -0.03080295 [K], tailcorrection: no
     Be -   N_com [ZERO_POTENTIAL]
     Be -      Ow [LENNARD_JONES] p_0/k_B:  61.91610 [K], p_1: 2.77350 [A], shift/k_B:  -0.03774669 [K], tailcorrection: no
     Be -      Hw [LENNARD_JONES] p_0/k_B:  18.08714 [K], p_1: 2.64821 [A], shift/k_B:  -0.00835616 [K], tailcorrection: no
     Be -      Lw [LENNARD_JONES] p_0/k_B:  15.37914 [K], p_1: 2.66500 [A], shift/k_B:  -0.00737965 [K], tailcorrection: no
     Be -    H_h2 [LENNARD_JONES] p_0/k_B:  39.61892 [K], p_1: 2.70400 [A], shift/k_B:  -0.02074237 [K], tailcorrection: no
     Be -   H_com [ZERO_POTENTIAL]
     Be -   N_nh3 [LENNARD_JONES] p_0/k_B:  88.95195 [K], p_1: 2.93500 [A], shift/k_B:  -0.07615241 [K], tailcorrection: no
     Be -   H_nh3 [LENNARD_JONES] p_0/k_B:   6.53988 [K], p_1: 1.72500 [A], shift/k_B:  -0.00023082 [K], tailcorrection: no
     Be -   M_nh3 [LENNARD_JONES] p_0/k_B:   6.53988 [K], p_1: 1.72500 [A], shift/k_B:  -0.00023082 [K], tailcorrection: no
     Ga -      Ga [LENNARD_JONES] p_0/k_B: 208.83600 [K], p_1: 3.90481 [A], shift/k_B:  -0.99051586 [K], tailcorrection: no
     Ga -       H [LENNARD_JONES] p_0/k_B:  39.96714 [K], p_1: 3.37561 [A], shift/k_B:  -0.07917312 [K], tailcorrection: no
     Ga -       V [LENNARD_JONES] p_0/k_B:  41.00543 [K], p_1: 3.35290 [A], shift/k_B:  -0.07800650 [K], tailcorrection: no
     Ga -      Mg [LENNARD_JONES] p_0/k_B: 108.00480 [K], p_1: 3.29811 [A], shift/k_B:  -0.18613118 [K], tailcorrection: no
     Ga - CH5_sp3 [LENNARD_JONES] p_0/k_B:  99.97048 [K], p_1: 3.68890 [A], shift/k_B:  -0.33717777 [K], tailcorrection: no
     Ga - CH4_sp3 [LENNARD_JONES] p_0/k_B: 181.93544 [K], p_1: 3.81241 [A], shift/k_B:  -0.74754478 [K], tailcorrection: no
     Ga - CH3_sp3 [LENNARD_JONES] p_0/k_B: 143.05918 [K], p_1: 3.82740 [A], shift/k_B:  -0.60180709 [K], tailcorrection: no
     Ga - CH2_sp3 [LENNARD_JONES] p_0/k_B:  98.01253 [K], p_1: 3.92741 [A], shift/k_B:  -0.48123164 [K], tailcorrection: no
     Ga -  CH_sp3 [LENNARD_JONES] p_0/k_B:  59.58366 [K], p_1: 4.28740 [A], shift/k_B:  -0.49472335 [K], tailcorrection: no
     Ga -   C_sp3 [LENNARD_JONES] p_0/k_B:  12.92551 [K], p_1: 5.14241 [A], shift/k_B:  -0.31821442 [K], tailcorrection: no
     Ga - CH2_sp2 [LENNARD_JONES] p_0/k_B: 139.36193 [K], p_1: 3.79490 [A], shift/k_B:  -0.55704142 [K], tailcorrection: no
     Ga -  CH_sp2 [LENNARD_JONES] p_0/k_B: 105.20603 [K], p_1: 3.82240 [A], shift/k_B:  -0.43911619 [K], tailcorrection: no
     Ga -  C_benz [LENNARD_JONES] p_0/k_B:  80.07038 [K], p_1: 3.75240 [A], shift/k_B:  -0.29915510 [K], tailcorrection: no
     Ga -  H_benz [LENNARD_JONES] p_0/k_B:  72.90320 [K], p_1: 3.13240 [A], shift/k_B:  -0.09222510 [K], tailcorrection: no
     Ga -      Na [LENNARD_JONES] p_0/k_B:  55.96910 [K], p_1: 3.28240 [A], shift/k_B:  -0.09373286 [K], tailcorrection: no
     Ga -      Cl [LENNARD_JONES] p_0/k_B: 172.54587 [K], p_1: 3.71206 [A], shift/k_B:  -0.60421266 [K], tailcorrection: no
     Ga -      Ca [LENNARD_JONES] p_0/k_B:  72.48665 [K], p_1: 3.49740 [A], shift/k_B:  -0.17759871 [K], tailcorrection: no
     Ga -   C_co2 [LENNARD_JONES] p_0/k_B:  75.09043 [K], p_1: 3.35241 [A], shift/k_B:  -0.14272152 [K], tailcorrection: no
     Ga -   O_co2 [LENNARD_JONES] p_0/k_B: 128.44471 [K], p_1: 3.47741 [A], shift/k_B:  -0.30406269 [K], tailcorrection: no
     Ga -    O_o2 [LENNARD_JONES] p_0/k_B: 101.15811 [K], p_1: 3.46240 [A], shift/k_B:  -0.23334031 [K], tailcorrection: no
     Ga -   O_com [ZERO_POTENTIAL]
     Ga -    N_n2 [LENNARD_JONES] p_0/k_B:  89.43154 [K], p_1: 3.60541 [A], shift/k_B:  -0.26294687 [K], tailcorrection: no
     Ga -   N_com [ZERO_POTENTIAL]
     Ga -      Ow [LENNARD_JONES] p_0/k_B: 136.81592 [K], p_1: 3.50090 [A], shift/k_B:  -0.33722771 [K], tailcorrection: no
     Ga -      Hw [LENNARD_JONES] p_0/k_B:  39.96714 [K], p_1: 3.37561 [A], shift/k_B:  -0.07917312 [K], tailcorrection: no
     Ga -      Lw [LENNARD_JONES] p_0/k_B:  33.98328 [K], p_1: 3.39241 [A], shift/k_B:  -0.06935251 [K], tailcorrection: no
     Ga -    H_h2 [LENNARD_JONES] p_0/k_B:  87.54588 [K], p_1: 3.43140 [A], shift/k_B:  -0.19133861 [K], tailcorrection: no
     Ga -   H_com [ZERO_POTENTIAL]
     Ga -   N_nh3 [LENNARD_JONES] p_0/k_B: 196.55701 [K], p_1: 3.66240 [A], shift/k_B:  -0.63490411 [K], tailcorrection: no
     Ga -   H_nh3 [LENNARD_JONES] p_0/k_B:  14.45116 [K], p_1: 2.45240 [A], shift/k_B:  -0.00421111 [K], tailcorrection: no
     Ga -   M_nh3 [LENNARD_JONES] p_0/k_B:  14.45116 [K], p_1: 2.45240 [A], shift/k_B:  -0.00421111 [K], tailcorrection: no
      H -       H [LENNARD_JONES] p_0/k_B:   7.64893 [K], p_1: 2.84642 [A], shift/k_B:  -0.00544866 [K], tailcorrection: no
      H -       V [LENNARD_JONES] p_0/k_B:   7.84764 [K], p_1: 2.82371 [A], shift/k_B:  -0.00532787 [K], tailcorrection: no
      H -      Mg [LENNARD_JONES] p_0/k_B:  20.67001 [K], p_1: 2.76891 [A], shift/k_B:  -0.01247686 [K], tailcorrection: no
      H - CH5_sp3 [LENNARD_JONES] p_0/k_B:  19.13240 [K], p_1: 3.15970 [A], shift/k_B:  -0.02549626 [K], tailcorrection: no
      H - CH4_sp3 [LENNARD_JONES] p_0/k_B:  34.81889 [K], p_1: 3.28321 [A], shift/k_B:  -0.05839790 [K], tailcorrection: no
      H - CH3_sp3 [LENNARD_JONES] p_0/k_B:  27.37874 [K], p_1: 3.29821 [A], shift/k_B:  -0.04719201 [K], tailcorrection: no
      H - CH2_sp3 [LENNARD_JONES] p_0/k_B:  18.75769 [K], p_1: 3.39821 [A], shift/k_B:  -0.03867488 [K], tailcorrection: no
      H -  CH_sp3 [LENNARD_JONES] p_0/k_B:  11.40315 [K], p_1: 3.75821 [A], shift/k_B:  -0.04300051 [K], tailcorrection: no
      H -   C_sp3 [LENNARD_JONES] p_0/k_B:   2.47369 [K], p_1: 4.61321 [A], shift/k_B:  -0.03183707 [K], tailcorrection: no
      H - CH2_sp2 [LENNARD_JONES] p_0/k_B:  26.67115 [K], p_1: 3.26571 [A], shift/k_B:  -0.04332151 [K], tailcorrection: no
      H -  CH_sp2 [LENNARD_JONES] p_0/k_B:  20.13438 [K], p_1: 3.29321 [A], shift/k_B:  -0.03439076 [K], tailcorrection: no
      H -  C_benz [LENNARD_JONES] p_0/k_B:  15.32391 [K], p_1: 3.22321 [A], shift/k_B:  -0.02300968 [K], tailcorrection: no
      H -  H_benz [LENNARD_JONES] p_0/k_B:  13.95225 [K], p_1: 2.60321 [A], shift/k_B:  -0.00581603 [K], tailcorrection: no
      H -      Na [LENNARD_JONES] p_0/k_B:  10.71139 [K], p_1: 2.75321 [A], shift/k_B:  -0.00624872 [K], tailcorrection: no
      H -      Cl [LENNARD_JONES] p_0/k_B:  33.02191 [K], p_1: 3.18287 [A], shift/k_B:  -0.04597661 [K], tailcorrection: no
      H -      Ca [LENNARD_JONES] p_0/k_B:  13.87253 [K], p_1: 2.96821 [A], shift/k_B:  -0.01270564 [K], tailcorrection: no
      H -   C_co2 [LENNARD_JONES] p_0/k_B:  14.37084 [K], p_1: 2.82321 [A], shift/k_B:  -0.00974631 [K], tailcorrection: no
      H -   O_co2 [LENNARD_JONES] p_0/k_B:  24.58181 [K], p_1: 2.94821 [A], shift/k_B:  -0.02161929 [K], tailcorrection: no
      H -    O_o2 [LENNARD_JONES] p_0/k_B:  19.35969 [K], p_1: 2.93321 [A], shift/k_B:  -0.01651343 [K], tailcorrection: no
      H -   O_com [ZERO_POTENTIAL]
      H -    N_n2 [LENNARD_JONES] p_0/k_B:  17.11545 [K], p_1: 3.07621 [A], shift/k_B:  -0.01942377 [K], tailcorrection: no
      H -   N_com [ZERO_POTENTIAL]
      H -      Ow [LENNARD_JONES] p_0/k_B:  26.18390 [K], p_1: 2.97171 [A], shift/k_B:  -0.02415156 [K], tailcorrection: no
      H -      Hw [LENNARD_JONES] p_0/k_B:   7.64893 [K], p_1: 2.84642 [A], shift/k_B:  -0.00544866 [K], tailcorrection: no
      H -      Lw [LENNARD_JONES] p_0/k_B:   6.50374 [K], p_1: 2.86321 [A], shift/k_B:  -0.00479926 [K], tailcorrection: no
      H -    H_h2 [LENNARD_JONES] p_0/k_B:  16.75457 [K], p_1: 2.90221 [A], shift/k_B:  -0.01340886 [K], tailcorrection: no
      H -   H_com [ZERO_POTENTIAL]
      H -   N_nh3 [LENNARD_JONES] p_0/k_B:  37.61718 [K], p_1: 3.13321 [A], shift/k_B:  -0.04766045 [K], tailcorrection: no
      H -   H_nh3 [LENNARD_JONES] p_0/k_B:   2.76567 [K], p_1: 1.92321 [A], shift/k_B:  -0.00018747 [K], tailcorrection: no
      H -   M_nh3 [LENNARD_JONES] p_0/k_B:   2.76567 [K], p_1: 1.92321 [A], shift/k_B:  -0.00018747 [K], tailcorrection: no
      V -       V [LENNARD_JONES] p_0/k_B:   8.05151 [K], p_1: 2.80099 [A], shift/k_B:  -0.00520774 [K], tailcorrection: no
      V -      Mg [LENNARD_JONES] p_0/k_B:  21.20699 [K], p_1: 2.74620 [A], shift/k_B:  -0.01218378 [K], tailcorrection: no
      V - CH5_sp3 [LENNARD_JONES] p_0/k_B:  19.62943 [K], p_1: 3.13699 [A], shift/k_B:  -0.02505073 [K], tailcorrection: no
      V - CH4_sp3 [LENNARD_JONES] p_0/k_B:  35.72344 [K], p_1: 3.26050 [A], shift/k_B:  -0.05747147 [K], tailcorrection: no
      V - CH3_sp3 [LENNARD_JONES] p_0/k_B:  28.09000 [K], p_1: 3.27550 [A], shift/k_B:  -0.04645219 [K], tailcorrection: no
      V - CH2_sp3 [LENNARD_JONES] p_0/k_B:  19.24499 [K], p_1: 3.37549 [A], shift/k_B:  -0.03811533 [K], tailcorrection: no
      V -  CH_sp3 [LENNARD_JONES] p_0/k_B:  11.69939 [K], p_1: 3.73550 [A], shift/k_B:  -0.04254311 [K], tailcorrection: no
      V -   C_sp3 [LENNARD_JONES] p_0/k_B:   2.53795 [K], p_1: 4.59049 [A], shift/k_B:  -0.03171394 [K], tailcorrection: no
      V - CH2_sp2 [LENNARD_JONES] p_0/k_B:  27.36404 [K], p_1: 3.24300 [A], shift/k_B:  -0.04262468 [K], tailcorrection: no
      V -  CH_sp2 [LENNARD_JONES] p_0/k_B:  20.65744 [K], p_1: 3.27050 [A], shift/k_B:  -0.03384948 [K], tailcorrection: no
      V -  C_benz [LENNARD_JONES] p_0/k_B:  15.72200 [K], p_1: 3.20050 [A], shift/k_B:  -0.02262700 [K], tailcorrection: no
      V -  H_benz [LENNARD_JONES] p_0/k_B:  14.31471 [K], p_1: 2.58049 [A], shift/k_B:  -0.00566148 [K], tailcorrection: no
      V -      Na [LENNARD_JONES] p_0/k_B:  10.98966 [K], p_1: 2.73050 [A], shift/k_B:  -0.00610021 [K], tailcorrection: no
      V -      Cl [LENNARD_JONES] p_0/k_B:  33.87978 [K], p_1: 3.16016 [A], shift/k_B:  -0.04518752 [K], tailcorrection: no
      V -      Ca [LENNARD_JONES] p_0/k_B:  14.23292 [K], p_1: 2.94550 [A], shift/k_B:  -0.01244862 [K], tailcorrection: no
      V -   C_co2 [LENNARD_JONES] p_0/k_B:  14.74418 [K], p_1: 2.80049 [A], shift/k_B:  -0.00952646 [K], tailcorrection: no
      V -   O_co2 [LENNARD_JONES] p_0/k_B:  25.22041 [K], p_1: 2.92549 [A], shift/k_B:  -0.02117531 [K], tailcorrection: no
      V -    O_o2 [LENNARD_JONES] p_0/k_B:  19.86263 [K], p_1: 2.91050 [A], shift/k_B:  -0.01617044 [K], tailcorrection: no
      V -   O_com [ZERO_POTENTIAL]
      V -    N_n2 [LENNARD_JONES] p_0/k_B:  17.56009 [K], p_1: 3.05349 [A], shift/k_B:  -0.01906183 [K], tailcorrection: no
      V -   N_com [ZERO_POTENTIAL]
      V -      Ow [LENNARD_JONES] p_0/k_B:  26.86412 [K], p_1: 2.94900 [A], shift/k_B:  -0.02366430 [K], tailcorrection: no
      V -      Hw [LENNARD_JONES] p_0/k_B:   7.84764 [K], p_1: 2.82371 [A], shift/k_B:  -0.00532787 [K], tailcorrection: no
      V -      Lw [LENNARD_JONES] p_0/k_B:   6.67269 [K], p_1: 2.84049 [A], shift/k_B:  -0.00469420 [K], tailcorrection: no
      V -    H_h2 [LENNARD_JONES] p_0/k_B:  17.18983 [K], p_1: 2.87950 [A], shift/k_B:  -0.01312379 [K], tailcorrection: no
      V -   H_com [ZERO_POTENTIAL]
      V -   N_nh3 [LENNARD_JONES] p_0/k_B:  38.59442 [K], p_1: 3.11050 [A], shift/k_B:  -0.04681040 [K], tailcorrection: no
      V -   H_nh3 [LENNARD_JONES] p_0/k_B:   2.83752 [K], p_1: 1.90050 [A], shift/k_B:  -0.00017910 [K], tailcorrection: no
      V -   M_nh3 [LENNARD_JONES] p_0/k_B:   2.83752 [K], p_1: 1.90050 [A], shift/k_B:  -0.00017910 [K], tailcorrection: no
     Mg -      Mg [LENNARD_JONES] p_0/k_B:  55.85740 [K], p_1: 2.69141 [A], shift/k_B:  -0.02843656 [K], tailcorrection: no
     Mg - CH5_sp3 [LENNARD_JONES] p_0/k_B:  51.70225 [K], p_1: 3.08220 [A], shift/k_B:  -0.05936386 [K], tailcorrection: no
     Mg - CH4_sp3 [LENNARD_JONES] p_0/k_B:  94.09250 [K], p_1: 3.20571 [A], shift/k_B:  -0.13674484 [K], tailcorrection: no
     Mg - CH3_sp3 [LENNARD_JONES] p_0/k_B:  73.98666 [K], p_1: 3.22070 [A], shift/k_B:  -0.11057813 [K], tailcorrection: no
     Mg - CH2_sp3 [LENNARD_JONES] p_0/k_B:  50.68965 [K], p_1: 3.32071 [A], shift/k_B:  -0.09100778 [K], tailcorrection: no
     Mg -  CH_sp3 [LENNARD_JONES] p_0/k_B:  30.81519 [K], p_1: 3.68070 [A], shift/k_B:  -0.10255613 [K], tailcorrection: no
     Mg -   C_sp3 [LENNARD_JONES] p_0/k_B:   6.68475 [K], p_1: 4.53571 [A], shift/k_B:  -0.07774249 [K], tailcorrection: no
     Mg - CH2_sp2 [LENNARD_JONES] p_0/k_B:  72.07453 [K], p_1: 3.18820 [A], shift/k_B:  -0.10136289 [K], tailcorrection: no
     Mg -  CH_sp2 [LENNARD_JONES] p_0/k_B:  54.40995 [K], p_1: 3.21570 [A], shift/k_B:  -0.08056514 [K], tailcorrection: no
     Mg -  C_benz [LENNARD_JONES] p_0/k_B:  41.41041 [K], p_1: 3.14570 [A], shift/k_B:  -0.05373399 [K], tailcorrection: no
     Mg -  H_benz [LENNARD_JONES] p_0/k_B:  37.70372 [K], p_1: 2.52570 [A], shift/k_B:  -0.01311036 [K], tailcorrection: no
     Mg -      Na [LENNARD_JONES] p_0/k_B:  28.94583 [K], p_1: 2.67570 [A], shift/k_B:  -0.01422769 [K], tailcorrection: no
     Mg -      Cl [LENNARD_JONES] p_0/k_B:  89.23644 [K], p_1: 3.10536 [A], shift/k_B:  -0.10716679 [K], tailcorrection: no
     Mg -      Ca [LENNARD_JONES] p_0/k_B:  37.48829 [K], p_1: 2.89070 [A], shift/k_B:  -0.02929584 [K], tailcorrection: no
     Mg -   C_co2 [LENNARD_JONES] p_0/k_B:  38.83490 [K], p_1: 2.74571 [A], shift/k_B:  -0.02228721 [K], tailcorrection: no
     Mg -   O_co2 [LENNARD_JONES] p_0/k_B:  66.42842 [K], p_1: 2.87071 [A], shift/k_B:  -0.04979393 [K], tailcorrection: no
     Mg -    O_o2 [LENNARD_JONES] p_0/k_B:  52.31647 [K], p_1: 2.85570 [A], shift/k_B:  -0.03800249 [K], tailcorrection: no
     Mg -   O_com [ZERO_POTENTIAL]
     Mg -    N_n2 [LENNARD_JONES] p_0/k_B:  46.25178 [K], p_1: 2.99871 [A], shift/k_B:  -0.04503992 [K], tailcorrection: no
     Mg -   N_com [ZERO_POTENTIAL]
     Mg -      Ow [LENNARD_JONES] p_0/k_B:  70.75780 [K], p_1: 2.89420 [A], shift/k_B:  -0.05569768 [K], tailcorrection: no
     Mg -      Hw [LENNARD_JONES] p_0/k_B:  20.67001 [K], p_1: 2.76891 [A], shift/k_B:  -0.01247686 [K], tailcorrection: no
     Mg -      Lw [LENNARD_JONES] p_0/k_B:  17.57531 [K], p_1: 2.78571 [A], shift/k_B:  -0.01100065 [K], tailcorrection: no
     Mg -    H_h2 [LENNARD_JONES] p_0/k_B:  45.27656 [K], p_1: 2.82470 [A], shift/k_B:  -0.03080425 [K], tailcorrection: no
     Mg -   H_com [ZERO_POTENTIAL]
     Mg -   N_nh3 [LENNARD_JONES] p_0/k_B: 101.65441 [K], p_1: 3.05570 [A], shift/k_B:  -0.11082784 [K], tailcorrection: no
     Mg -   H_nh3 [LENNARD_JONES] p_0/k_B:   7.47378 [K], p_1: 1.84570 [A], shift/k_B:  -0.00039580 [K], tailcorrection: no
     Mg -   M_nh3 [LENNARD_JONES] p_0/k_B:   7.47378 [K], p_1: 1.84570 [A], shift/k_B:  -0.00039580 [K], tailcorrection: no
CH5_sp3 - CH5_sp3 [LENNARD_JONES] p_0/k_B:  47.85620 [K], p_1: 3.47299 [A], shift/k_B:  -0.11242855 [K], tailcorrection: no
CH5_sp3 - CH4_sp3 [LENNARD_JONES] p_0/k_B:  87.09310 [K], p_1: 3.59649 [A], shift/k_B:  -0.25230052 [K], tailcorrection: no
CH5_sp3 - CH3_sp3 [LENNARD_JONES] p_0/k_B:  68.48290 [K], p_1: 3.61149 [A], shift/k_B:  -0.20340140 [K], tailcorrection: no
CH5_sp3 - CH2_sp3 [LENNARD_JONES] p_0/k_B:  46.91892 [K], p_1: 3.71150 [A], shift/k_B:  -0.16414720 [K], tailcorrection: no
CH5_sp3 -  CH_sp3 [LENNARD_JONES] p_0/k_B:  28.52289 [K], p_1: 4.07149 [A], shift/k_B:  -0.17379067 [K], tailcorrection: no
CH5_sp3 -   C_sp3 [LENNARD_JONES] p_0/k_B:   6.18748 [K], p_1: 4.92650 [A], shift/k_B:  -0.11793170 [K], tailcorrection: no
CH5_sp3 - CH2_sp2 [LENNARD_JONES] p_0/k_B:  66.71302 [K], p_1: 3.57899 [A], shift/k_B:  -0.18769118 [K], tailcorrection: no
CH5_sp3 -  CH_sp2 [LENNARD_JONES] p_0/k_B:  50.36247 [K], p_1: 3.60649 [A], shift/k_B:  -0.14834448 [K], tailcorrection: no
CH5_sp3 -  C_benz [LENNARD_JONES] p_0/k_B:  38.32995 [K], p_1: 3.53649 [A], shift/k_B:  -0.10038399 [K], tailcorrection: no
CH5_sp3 -  H_benz [LENNARD_JONES] p_0/k_B:  34.89900 [K], p_1: 2.91649 [A], shift/k_B:  -0.02876494 [K], tailcorrection: no
CH5_sp3 -      Na [LENNARD_JONES] p_0/k_B:  26.79259 [K], p_1: 3.06649 [A], shift/k_B:  -0.02983458 [K], tailcorrection: no
CH5_sp3 -      Cl [LENNARD_JONES] p_0/k_B:  82.59828 [K], p_1: 3.49615 [A], shift/k_B:  -0.20193979 [K], tailcorrection: no
CH5_sp3 -      Ca [LENNARD_JONES] p_0/k_B:  34.69960 [K], p_1: 3.28149 [A], shift/k_B:  -0.05801573 [K], tailcorrection: no
CH5_sp3 -   C_co2 [LENNARD_JONES] p_0/k_B:  35.94603 [K], p_1: 3.13650 [A], shift/k_B:  -0.04583029 [K], tailcorrection: no
CH5_sp3 -   O_co2 [LENNARD_JONES] p_0/k_B:  61.48691 [K], p_1: 3.26150 [A], shift/k_B:  -0.09910153 [K], tailcorrection: no
CH5_sp3 -    O_o2 [LENNARD_JONES] p_0/k_B:  48.42472 [K], p_1: 3.24649 [A], shift/k_B:  -0.07592027 [K], tailcorrection: no
CH5_sp3 -   O_com [ZERO_POTENTIAL]
CH5_sp3 -    N_n2 [LENNARD_JONES] p_0/k_B:  42.81118 [K], p_1: 3.38950 [A], shift/k_B:  -0.08691987 [K], tailcorrection: no
CH5_sp3 -   N_com [ZERO_POTENTIAL]
[...]
	Block[ 2]            0.00000 [K]
	Block[ 3]            0.00000 [K]
	Block[ 4]            0.00000 [K]
	------------------------------------------------------------------------------
	Average              0.00000 [K] +/-            0.00000 [K]

Average Cation Bend angle inversion energy:
===========================================
	Block[ 0]            0.00000 [K]
	Block[ 1]            0.00000 [K]
	Block[ 2]            0.00000 [K]
	Block[ 3]            0.00000 [K]
	Block[ 4]            0.00000 [K]
	------------------------------------------------------------------------------
	Average              0.00000 [K] +/-            0.00000 [K]

Average Cation Torsion energy:
==============================
	Block[ 0]            0.00000 [K]
	Block[ 1]            0.00000 [K]
	Block[ 2]            0.00000 [K]
	Block[ 3]            0.00000 [K]
	Block[ 4]            0.00000 [K]
	------------------------------------------------------------------------------
	Average              0.00000 [K] +/-            0.00000 [K]

Average Cation Improper Torsion energy:
=======================================
	Block[ 0]            0.00000 [K]
	Block[ 1]            0.00000 [K]
	Block[ 2]            0.00000 [K]
	Block[ 3]            0.00000 [K]
	Block[ 4]            0.00000 [K]
	------------------------------------------------------------------------------
	Average              0.00000 [K] +/-            0.00000 [K]

Average Cation Bond-Bond cross term energy:
=================================================
	Block[ 0]            0.00000 [K]
	Block[ 1]            0.00000 [K]
	Block[ 2]            0.00000 [K]
	Block[ 3]            0.00000 [K]
	Block[ 4]            0.00000 [K]
	------------------------------------------------------------------------------
	Average              0.00000 [K] +/-            0.00000 [K]

Average Cation Bend-Bend cross term energy:
===========================================
	Block[ 0]            0.00000 [K]
	Block[ 1]            0.00000 [K]
	Block[ 2]            0.00000 [K]
	Block[ 3]            0.00000 [K]
	Block[ 4]            0.00000 [K]
	------------------------------------------------------------------------------
	Average              0.00000 [K] +/-            0.00000 [K]

Average Cation Bond-Bend cross term energy:
==============================================
	Block[ 0]            0.00000 [K]
	Block[ 1]            0.00000 [K]
	Block[ 2]            0.00000 [K]
	Block[ 3]            0.00000 [K]
	Block[ 4]            0.00000 [K]
	------------------------------------------------------------------------------
	Average              0.00000 [K] +/-            0.00000 [K]

Average Cation Bond-Torsion cross term energy:
==============================================
	Block[ 0]            0.00000 [K]
	Block[ 1]            0.00000 [K]
	Block[ 2]            0.00000 [K]
	Block[ 3]            0.00000 [K]
	Block[ 4]            0.00000 [K]
	------------------------------------------------------------------------------
	Average              0.00000 [K] +/-            0.00000 [K]

Average Cation Bend-Torsion cross term energy:
==============================================
	Block[ 0]            0.00000 [K]
	Block[ 1]            0.00000 [K]
	Block[ 2]            0.00000 [K]
	Block[ 3]            0.00000 [K]
	Block[ 4]            0.00000 [K]
	------------------------------------------------------------------------------
	Average              0.00000 [K] +/-            0.00000 [K]

Average Cation Intra Van der Waals energy:
==========================================
	Block[ 0]            0.00000 [K]
	Block[ 1]            0.00000 [K]
	Block[ 2]            0.00000 [K]
	Block[ 3]            0.00000 [K]
	Block[ 4]            0.00000 [K]
	------------------------------------------------------------------------------
	Average              0.00000 [K] +/-            0.00000 [K]

Average Cation Intra charge-charge Coulomb energy:
====================================
	Block[ 0]            0.00000 [K]
	Block[ 1]            0.00000 [K]
	Block[ 2]            0.00000 [K]
	Block[ 3]            0.00000 [K]
	Block[ 4]            0.00000 [K]
	------------------------------------------------------------------------------
	Average              0.00000 [K] +/-            0.00000 [K]

Average Cation Intra charge-bonddipole Coulomb energy:
====================================
	Block[ 0]            0.00000 [K]
	Block[ 1]            0.00000 [K]
	Block[ 2]            0.00000 [K]
	Block[ 3]            0.00000 [K]
	Block[ 4]            0.00000 [K]
	------------------------------------------------------------------------------
	Average              0.00000 [K] +/-            0.00000 [K]

Average Cation Intra bonddipole-bonddipole Coulomb energy:
====================================
	Block[ 0]            0.00000 [K]
	Block[ 1]            0.00000 [K]
	Block[ 2]            0.00000 [K]
	Block[ 3]            0.00000 [K]
	Block[ 4]            0.00000 [K]
	------------------------------------------------------------------------------
	Average              0.00000 [K] +/-            0.00000 [K]

Average Host-Host energy:
=========================
	Block[ 0] 0.00000            Van der Waals: 0.00000            Coulomb: 0.00000            [K]
	Block[ 1] 0.00000            Van der Waals: 0.00000            Coulomb: 0.00000            [K]
	Block[ 2] 0.00000            Van der Waals: 0.00000            Coulomb: 0.00000            [K]
	Block[ 3] 0.00000            Van der Waals: 0.00000            Coulomb: 0.00000            [K]
	Block[ 4] 0.00000            Van der Waals: 0.00000            Coulomb: 0.00000            [K]
	------------------------------------------------------------------------------
	Average   0.00000            Van der Waals: 0.000000           Coulomb: 0.00000            [K]
	      +/- 0.00000                       +/- 0.000000                +/- 0.00000            [K]

Average Adsorbate-Adsorbate energy:
===================================
	Block[ 0] -602.04304         Van der Waals: -601.54789         Coulomb: -0.49516           [K]
	Block[ 1] -561.87333         Van der Waals: -561.45460         Coulomb: -0.41873           [K]
	Block[ 2] -585.57813         Van der Waals: -585.00201         Coulomb: -0.57612           [K]
	Block[ 3] -566.50994         Van der Waals: -566.08444         Coulomb: -0.42550           [K]
	Block[ 4] -539.49498         Van der Waals: -539.40003         Coulomb: -0.09495           [K]
	------------------------------------------------------------------------------
	Average   -571.09988         Van der Waals: -570.697794        Coulomb: -0.40209           [K]
	      +/- 29.58860                      +/- 29.395523               +/- 0.22732            [K]

Average Cation-Cation energy:
=============================
	Block[ 0] 0.00000            Van der Waals: 0.00000            Coulomb: 0.00000            [K]
	Block[ 1] 0.00000            Van der Waals: 0.00000            Coulomb: 0.00000            [K]
	Block[ 2] 0.00000            Van der Waals: 0.00000            Coulomb: 0.00000            [K]
	Block[ 3] 0.00000            Van der Waals: 0.00000            Coulomb: 0.00000            [K]
	Block[ 4] 0.00000            Van der Waals: 0.00000            Coulomb: 0.00000            [K]
	------------------------------------------------------------------------------
	Average   0.00000            Van der Waals: 0.000000           Coulomb: 0.00000            [K]
	      +/- 0.00000                       +/- 0.000000                +/- 0.00000            [K]

Average Host-Adsorbate energy:
==============================
	Block[ 0] -119202.20692      Van der Waals: -116769.67742      Coulomb: -2432.52950        [K]
	Block[ 1] -116445.50089      Van der Waals: -114180.57890      Coulomb: -2264.92199        [K]
	Block[ 2] -118006.90163      Van der Waals: -115554.75594      Coulomb: -2452.14568        [K]
	Block[ 3] -116367.30174      Van der Waals: -114051.65032      Coulomb: -2315.65141        [K]
	Block[ 4] -115390.66630      Van der Waals: -113125.48507      Coulomb: -2265.18122        [K]
	------------------------------------------------------------------------------
	Average   -117082.51549      Van der Waals: -114736.429532     Coulomb: -2346.08596        [K]
	      +/- 1875.31626                    +/- 1774.989859             +/- 112.38614          [K]

Average Host-Cation energy:
===========================
	Block[ 0] 0.00000            Van der Waals: 0.00000            Coulomb: 0.00000            [K]
	Block[ 1] 0.00000            Van der Waals: 0.00000            Coulomb: 0.00000            [K]
	Block[ 2] 0.00000            Van der Waals: 0.00000            Coulomb: 0.00000            [K]
	Block[ 3] 0.00000            Van der Waals: 0.00000            Coulomb: 0.00000            [K]
	Block[ 4] 0.00000            Van der Waals: 0.00000            Coulomb: 0.00000            [K]
	------------------------------------------------------------------------------
	Average   0.00000            Van der Waals: 0.000000           Coulomb: 0.00000            [K]
	      +/- 0.00000                       +/- 0.000000                +/- 0.00000            [K]

Average Adsorbate-Cation energy:
================================
	Block[ 0] 0.00000            Van der Waals: 0.00000            Coulomb: 0.00000            [K]
	Block[ 1] 0.00000            Van der Waals: 0.00000            Coulomb: 0.00000            [K]
	Block[ 2] 0.00000            Van der Waals: 0.00000            Coulomb: 0.00000            [K]
	Block[ 3] 0.00000            Van der Waals: 0.00000            Coulomb: 0.00000            [K]
	Block[ 4] 0.00000            Van der Waals: 0.00000            Coulomb: 0.00000            [K]
	------------------------------------------------------------------------------
	Average   0.00000            Van der Waals: 0.000000           Coulomb: 0.00000            [K]
	      +/- 0.00000                       +/- 0.000000                +/- 0.00000            [K]

Host polarization energy:
=======================
	Block[ 0]            0.00000 [K]
	Block[ 1]            0.00000 [K]
	Block[ 2]            0.00000 [K]
	Block[ 3]            0.00000 [K]
	Block[ 4]            0.00000 [K]
	------------------------------------------------------------------------------
	Average              0.00000 [K] +/-            0.00000 [K]

Adsorbate polarization energy:
=======================
	Block[ 0]            0.00000 [K]
	Block[ 1]            0.00000 [K]
	Block[ 2]            0.00000 [K]
	Block[ 3]            0.00000 [K]
	Block[ 4]            0.00000 [K]
	------------------------------------------------------------------------------
	Average              0.00000 [K] +/-            0.00000 [K]

Cation polarization energy:
=======================
	Block[ 0]            0.00000 [K]
	Block[ 1]            0.00000 [K]
	Block[ 2]            0.00000 [K]
	Block[ 3]            0.00000 [K]
	Block[ 4]            0.00000 [K]
	------------------------------------------------------------------------------
	Average              0.00000 [K] +/-            0.00000 [K]

Host back-polarization energy:
=======================
	Block[ 0]            0.00000 [K]
	Block[ 1]            0.00000 [K]
	Block[ 2]            0.00000 [K]
	Block[ 3]            0.00000 [K]
	Block[ 4]            0.00000 [K]
	------------------------------------------------------------------------------
	Average              0.00000 [K] +/-            0.00000 [K]

Adsorbate back-polarization energy:
=======================
	Block[ 0]            0.00000 [K]
	Block[ 1]            0.00000 [K]
	Block[ 2]            0.00000 [K]
	Block[ 3]            0.00000 [K]
	Block[ 4]            0.00000 [K]
	------------------------------------------------------------------------------
	Average              0.00000 [K] +/-            0.00000 [K]

Cation back-polarization energy:
=======================
	Block[ 0]            0.00000 [K]
	Block[ 1]            0.00000 [K]
	Block[ 2]            0.00000 [K]
	Block[ 3]            0.00000 [K]
	Block[ 4]            0.00000 [K]
	------------------------------------------------------------------------------
	Average              0.00000 [K] +/-            0.00000 [K]

Tail-correction energy:
=======================
	Block[ 0]            0.00000 [K]
	Block[ 1]            0.00000 [K]
	Block[ 2]            0.00000 [K]
	Block[ 3]            0.00000 [K]
	Block[ 4]            0.00000 [K]
	------------------------------------------------------------------------------
	Average              0.00000 [K] +/-            0.00000 [K]

Distance-constraints energy:
=======================
	Block[ 0]            0.00000 [K]
	Block[ 1]            0.00000 [K]
	Block[ 2]            0.00000 [K]
	Block[ 3]            0.00000 [K]
	Block[ 4]            0.00000 [K]
	------------------------------------------------------------------------------
	Average              0.00000 [K] +/-            0.00000 [K]

Angle-constraints energy:
=======================
	Block[ 0]            0.00000 [K]
	Block[ 1]            0.00000 [K]
	Block[ 2]            0.00000 [K]
	Block[ 3]            0.00000 [K]
	Block[ 4]            0.00000 [K]
	------------------------------------------------------------------------------
	Average              0.00000 [K] +/-            0.00000 [K]

Dihedral-constraints energy:
=======================
	Block[ 0]            0.00000 [K]
	Block[ 1]            0.00000 [K]
	Block[ 2]            0.00000 [K]
	Block[ 3]            0.00000 [K]
	Block[ 4]            0.00000 [K]
	------------------------------------------------------------------------------
	Average              0.00000 [K] +/-            0.00000 [K]

Inversion-bend constraints energy:
=======================
	Block[ 0]            0.00000 [K]
	Block[ 1]            0.00000 [K]
	Block[ 2]            0.00000 [K]
	Block[ 3]            0.00000 [K]
	Block[ 4]            0.00000 [K]
	------------------------------------------------------------------------------
	Average              0.00000 [K] +/-            0.00000 [K]

Out-of-plane-distance constraints energy:
=======================
	Block[ 0]            0.00000 [K]
	Block[ 1]            0.00000 [K]
	Block[ 2]            0.00000 [K]
	Block[ 3]            0.00000 [K]
	Block[ 4]            0.00000 [K]
	------------------------------------------------------------------------------
	Average              0.00000 [K] +/-            0.00000 [K]

Exclusion-constraints energy:
=======================
	Block[ 0]            0.00000 [K]
	Block[ 1]            0.00000 [K]
	Block[ 2]            0.00000 [K]
	Block[ 3]            0.00000 [K]
	Block[ 4]            0.00000 [K]
	------------------------------------------------------------------------------
	Average              0.00000 [K] +/-            0.00000 [K]

Total energy:
=============
	Block[ 0]      -119804.24996 [K]
	Block[ 1]      -117007.37422 [K]
	Block[ 2]      -118592.47975 [K]
	Block[ 3]      -116933.81168 [K]
	Block[ 4]      -115930.16128 [K]
	------------------------------------------------------------------------------
	Average        -117653.61538 [K] +/-         1904.41839 [K]

Number of molecules:
====================

Component 0 [O2]
-------------------------------------------------------------
	Block[ 0] 52.11225           [-]
	Block[ 1] 50.93000           [-]
	Block[ 2] 51.53450           [-]
	Block[ 3] 50.91025           [-]
	Block[ 4] 50.53750           [-]
	------------------------------------------------------------------------------
	Average loading absolute                             51.2049000000 +/-       0.7702416020 [-]
	Average loading absolute [molecules/unit cell]        1.8964777778 +/-       0.0285274667 [-]
	Average loading absolute [mol/kg framework]                  0.8336305300 +/-       0.0125397553 [-]
	Average loading absolute [milligram/gram framework]         26.6751766032 +/-       0.4012571211 [-]
	Average loading absolute [cm^3 (STP)/gr framework]          18.6849744818 +/-       0.2810657706 [-]
	Average loading absolute [cm^3 (STP)/cm^3 framework]        38.9953320420 +/-       0.5865811089 [-]

	Block[ 0] 52.11225           [-]
	Block[ 1] 50.93000           [-]
	Block[ 2] 51.53450           [-]
	Block[ 3] 50.91025           [-]
	Block[ 4] 50.53750           [-]
	------------------------------------------------------------------------------
	Average loading excess                             51.2049000000 +/-       0.7702416020 [-]
	Average loading excess [molecules/unit cell]        1.8964777778 +/-       0.0285274667 [-]
	Average loading excess [mol/kg framework]                    0.8336305300 +/-       0.0125397553 [-]
	Average loading excess [milligram/gram framework]           26.6751766032 +/-       0.4012571211 [-]
	Average loading excess [cm^3 (STP)/gr framework]            18.6849744818 +/-       0.2810657706 [-]
	Average loading excess [cm^3 (STP)/cm^3 framework]          38.9953320420 +/-       0.5865811089 [-]


Average Widom Rosenbluth factor:
================================
	Block[ 0] 0 [-]
	Block[ 1] 0 [-]
	Block[ 2] 0 [-]
	Block[ 3] 0 [-]
	Block[ 4] 0 [-]
	------------------------------------------------------------------------------
	[O2] Average Widom Rosenbluth-weight:   0 +/- 0.000000 [-]

Average Widom chemical potential:
=================================
	Block[ 0] 0 [-]
	Block[ 1] 0 [-]
	Block[ 2] 0 [-]
	Block[ 3] 0 [-]
	Block[ 4] 0 [-]
	------------------------------------------------------------------------------
	[O2] Average chemical potential:   0 +/- 0.000000 [K]

Average Widom Ideal-gas contribution:
=====================================
	Block[ 0] 0 [-]
	Block[ 1] 0 [-]
	Block[ 2] 0 [-]
	Block[ 3] 0 [-]
	Block[ 4] 0 [-]
	------------------------------------------------------------------------------
	[O2] Average Widom Ideal-gas chemical potential:   0 +/- 0.000000 [-]

Average Widom excess contribution:
==================================
	Block[ 0] 0 [-]
	Block[ 1] 0 [-]
	Block[ 2] 0 [-]
	Block[ 3] 0 [-]
	Block[ 4] 0 [-]
	------------------------------------------------------------------------------
	[O2] Average Widom excess chemical potential:   0 +/- 0.000000 [-]

Average Gibbs Widom Rosenbluth factor:
======================================
	Block[ 0] 0 [-]
	Block[ 1] 0 [-]
	Block[ 2] 0 [-]
	Block[ 3] 0 [-]
	Block[ 4] 0 [-]
	------------------------------------------------------------------------------
	[O2] Average Gibbs Widom Rosenbluth-weight:   0 +/- 0.000000 [-]

Average Gibbs Widom chemical potential:
=======================================
	Block[ 0] 0 [-]
	Block[ 1] 0 [-]
	Block[ 2] 0 [-]
	Block[ 3] 0 [-]
	Block[ 4] 0 [-]
	------------------------------------------------------------------------------
	[O2] Average Gibbs chemical potential:   0 +/- 0.000000 [K]

Average Gibbs Widom Ideal-gas contribution:
===========================================
	Block[ 0] 0 [-]
	Block[ 1] 0 [-]
	Block[ 2] 0 [-]
	Block[ 3] 0 [-]
	Block[ 4] 0 [-]
	------------------------------------------------------------------------------
	[O2] Average Gibbs Ideal-gas chemical potential:   0 +/- 0.000000 [-]

Average Gibbs Widom excess contribution:
===========================================
	Block[ 0] 0 [-]
	Block[ 1] 0 [-]
	Block[ 2] 0 [-]
	Block[ 3] 0 [-]
	Block[ 4] 0 [-]
	------------------------------------------------------------------------------
	[O2] Average Gibbs excess chemical potential:   0 +/- 0.000000 [-]

Average Henry coefficient:
==========================
	Block[ 0] 0 [mol/kg/Pa]
	Block[ 1] 0 [mol/kg/Pa]
	Block[ 2] 0 [mol/kg/Pa]
	Block[ 3] 0 [mol/kg/Pa]
	Block[ 4] 0 [mol/kg/Pa]
	------------------------------------------------------------------------------
	[O2] Average Henry coefficient:  0 +/- 0 [mol/kg/Pa]

Average adsorption energy <U_gh>_1-<U_h>_0 obtained from Widom-insertion:
(Note: the total heat of adsorption is dH=<U_gh>_1-<U_h>_0 - <U_g> - RT)
=========================================================================

Simulation finished,  0 warnings


Mon Mar 24 02:35:34 2025
Simulation finished on Monday, March 24.
The end time was 02:35 AM.

